thermo 1000
thermo_style custom step temp press vol density etotal

# Water-water LJ parameters for TIP3P
pair_coeff  1 1 0.102 3.188  # O-O
pair_coeff  2 2 0.000 0.000  # H-H
# Bond and angle parameters
bond_coeff  1 450.0 0.9572   # O-H bond
angle_coeff 1 55.0 104.52    # H-O-H angle

# --- Setup masses ---
mass 1 15.9994  # O
mass 2 1.008    # H

# --- Settings ---
# Special bonds settings for water
special_bonds lj/coul 0.0 0.0 0.5
Finding 1-2 1-3 1-4 neighbors ...
  special bond factors lj:    0        0        0.5     
  special bond factors coul:  0        0        0.5     
     2 = max # of 1-2 neighbors
     1 = max # of 1-3 neighbors
     1 = max # of 1-4 neighbors
     2 = max # of special neighbors
  special bonds CPU = 0.001 seconds
neighbor 2.0 bin
neigh_modify every 1 delay 0 check yes

# --- MD settings ---
timestep 1.0  # 1 fs timestep

# --- Initial minimization ---
minimize 1.0e-4 1.0e-6 1000 10000
PPPM initialization ...
  using 12-bit tables for long-range coulomb (src/kspace.cpp:342)
  G vector (1/distance) = 0.26094871
  grid = 20 20 20
  stencil order = 5
  estimated absolute RMS force accuracy = 0.024674246
  estimated relative force accuracy = 7.430576e-05
  using double precision FFTW3
  3d grid and FFT values/proc = 17576 8000
Generated 1 of 1 mixed pair_coeff terms from arithmetic mixing rule
Neighbor list info ...
  update: every = 1 steps, delay = 0 steps, check = yes
  max neighbors/atom: 2000, page size: 100000
  master list distance cutoff = 12
  ghost atom cutoff = 12
  binsize = 6, bins = 7 7 7
  1 neighbor lists, perpetual/occasional/extra = 1 0 0
  (1) pair lj/cut/coul/long, perpetual
      attributes: half, newton on
      pair build: half/bin/newton
      stencil: half/bin/3d
      bin: standard
Per MPI rank memory allocation (min/avg/max) = 11.99 | 11.99 | 11.99 Mbytes
   Step          Temp          Press          Volume        Density         TotEng    
         0   0              3777918.1      64000          0.46742614     894667.11    
       310   0             -1706.7303      64000          0.46742614    -11266.297    
Loop time of 4.7703 on 1 procs for 310 steps with 3000 atoms

100.0% CPU use with 1 MPI tasks x 1 OpenMP threads

Minimization stats:
  Stopping criterion = energy tolerance
  Energy initial, next-to-last, final = 
      894667.111360128  -11265.2800106539  -11266.2972539133
  Force two-norm initial, final = 11642016 49.008765
  Force max component initial, final = 7202659.4 6.1231201
  Final line search alpha, max atom move = 0.0084812575 0.051931758
  Iterations, force evaluations = 310 543

MPI task timing breakdown:
Section |  min time  |  avg time  |  max time  |%varavg| %total
---------------------------------------------------------------
Pair    | 3.9748     | 3.9748     | 3.9748     |   0.0 | 83.32
Bond    | 0.033978   | 0.033978   | 0.033978   |   0.0 |  0.71
Kspace  | 0.55624    | 0.55624    | 0.55624    |   0.0 | 11.66
Neigh   | 0.13699    | 0.13699    | 0.13699    |   0.0 |  2.87
Comm    | 0.031593   | 0.031593   | 0.031593   |   0.0 |  0.66
Output  | 0          | 0          | 0          |   0.0 |  0.00
Modify  | 0          | 0          | 0          |   0.0 |  0.00
Other   |            | 0.03668    |            |       |  0.77

Nlocal:           3000 ave        3000 max        3000 min
Histogram: 1 0 0 0 0 0 0 0 0 0
Nghost:           9282 ave        9282 max        9282 min
Histogram: 1 0 0 0 0 0 0 0 0 0
Neighs:         514890 ave      514890 max      514890 min
Histogram: 1 0 0 0 0 0 0 0 0 0

Total # of neighbors = 514890
Ave neighs/atom = 171.63
Ave special neighs/atom = 2
Neighbor list builds = 15
Dangerous builds = 0
thermo 1000
thermo_style custom step temp press vol density etotal

# Water-water LJ parameters for TIP3P
pair_coeff  1 1 0.102 3.188  # O-O
pair_coeff  2 2 0.000 0.000  # H-H
# Bond and angle parameters
bond_coeff  1 450.0 0.9572   # O-H bond
angle_coeff 1 55.0 104.52    # H-O-H angle

# --- Setup masses ---
mass 1 15.9994  # O
mass 2 1.008    # H

# --- Settings ---
# Special bonds settings for water
special_bonds lj/coul 0.0 0.0 0.5
Finding 1-2 1-3 1-4 neighbors ...
  special bond factors lj:    0        0        0.5     
  special bond factors coul:  0        0        0.5     
     2 = max # of 1-2 neighbors
     1 = max # of 1-3 neighbors
     1 = max # of 1-4 neighbors
     2 = max # of special neighbors
  special bonds CPU = 0.001 seconds
neighbor 2.5 bin
neigh_modify every 1 delay 0 check yes one 10000  # max neighbors

# --- MD settings ---
timestep 1.0  # 1 fs timestep
# --- Initial minimization ---
minimize 1.0e-4 1.0e-6 5000 50000
PPPM initialization ...
  using 12-bit tables for long-range coulomb (src/kspace.cpp:342)
  G vector (1/distance) = 0.26094871
  grid = 20 20 20
  stencil order = 5
  estimated absolute RMS force accuracy = 0.024674246
  estimated relative force accuracy = 7.430576e-05
  using double precision FFTW3
  3d grid and FFT values/proc = 19683 8000
Generated 1 of 1 mixed pair_coeff terms from arithmetic mixing rule
Neighbor list info ...
  update: every = 1 steps, delay = 0 steps, check = yes
  max neighbors/atom: 10000, page size: 100000
  master list distance cutoff = 12.5
  ghost atom cutoff = 12.5
  binsize = 6.25, bins = 7 7 7
  1 neighbor lists, perpetual/occasional/extra = 1 0 0
  (1) pair lj/cut/coul/long, perpetual
      attributes: half, newton on
      pair build: half/bin/newton
      stencil: half/bin/3d
      bin: standard
Per MPI rank memory allocation (min/avg/max) = 12.48 | 12.48 | 12.48 Mbytes
   Step          Temp          Press          Volume        Density         TotEng    
         0   0              3777918.1      64000          0.46742614     894667.11    
       282   0             -1963.8254      64000          0.46742614    -11170.599    
Loop time of 4.19319 on 1 procs for 282 steps with 3000 atoms

100.0% CPU use with 1 MPI tasks x 1 OpenMP threads

Minimization stats:
  Stopping criterion = energy tolerance
  Energy initial, next-to-last, final = 
      894667.111360128  -11169.5981970827  -11170.5991598767
  Force two-norm initial, final = 11642016 39.177584
  Force max component initial, final = 7202659.4 5.7125002
  Final line search alpha, max atom move = 0.010236553 0.058476313
  Iterations, force evaluations = 282 489

MPI task timing breakdown:
Section |  min time  |  avg time  |  max time  |%varavg| %total
---------------------------------------------------------------
Pair    | 3.594      | 3.594      | 3.594      |   0.0 | 85.71
Bond    | 0.026931   | 0.026931   | 0.026931   |   0.0 |  0.64
Kspace  | 0.44124    | 0.44124    | 0.44124    |   0.0 | 10.52
Neigh   | 0.092563   | 0.092563   | 0.092563   |   0.0 |  2.21
Comm    | 0.017377   | 0.017377   | 0.017377   |   0.0 |  0.41
Output  | 0          | 0          | 0          |   0.0 |  0.00
Modify  | 0          | 0          | 0          |   0.0 |  0.00
Other   |            | 0.02107    |            |       |  0.50

Nlocal:           3000 ave        3000 max        3000 min
Histogram: 1 0 0 0 0 0 0 0 0 0
Nghost:           9799 ave        9799 max        9799 min
Histogram: 1 0 0 0 0 0 0 0 0 0
Neighs:         580216 ave      580216 max      580216 min
Histogram: 1 0 0 0 0 0 0 0 0 0

Total # of neighbors = 580216
Ave neighs/atom = 193.40533
Ave special neighs/atom = 2
Neighbor list builds = 10
Dangerous builds = 0

# --- Add a short NVT equilibration before NPT ---
print "Starting short NVT equilibration phase"
Starting short NVT equilibration phase
fix 1 all shake 0.0001 20 0 b 1 a 1
Finding SHAKE clusters ...
       0 = # of size 2 clusters
       0 = # of size 3 clusters
       0 = # of size 4 clusters
    1000 = # of frozen angles
  find clusters CPU = 0.001 seconds
fix 2 all nvt temp 50.0 300.0 100.0  # Gentle temperature ramp-up
thermo 500
run 5000  # 5 ps gentle heating
PPPM initialization ...
  using 12-bit tables for long-range coulomb (src/kspace.cpp:342)
  G vector (1/distance) = 0.26094871
  grid = 20 20 20
  stencil order = 5
  estimated absolute RMS force accuracy = 0.024674246
  estimated relative force accuracy = 7.430576e-05
  using double precision FFTW3
  3d grid and FFT values/proc = 19683 8000
Generated 1 of 1 mixed pair_coeff terms from arithmetic mixing rule
Per MPI rank memory allocation (min/avg/max) = 12.23 | 12.23 | 12.23 Mbytes
   Step          Temp          Press          Volume        Density         TotEng    
       282   0             -1221.2415      64000          0.46742614    -12052.267    
       500   24.694067     -1762.4901      64000          0.46742614    -10283.166    
      1000   88.765481     -1056.1128      64000          0.46742614    -9891.4808    
      1500   113.53502     -1046.786       64000          0.46742614    -9755.5685    
      2000   132.68846     -852.27196      64000          0.46742614    -9556.9043    
      2500   158.28327     -619.63642      64000          0.46742614    -9361.608     
      3000   186.08142     -965.41513      64000          0.46742614    -9142.5951    
      3500   215.83098     -552.59708      64000          0.46742614    -8855.4369    
      4000   233.23965     -319.20245      64000          0.46742614    -8479.771     
      4500   259.29568     -125.88637      64000          0.46742614    -8049.9678    
      5000   287.18508     -318.24419      64000          0.46742614    -7686.415     
      5282   290.51848     -194.24311      64000          0.46742614    -7523.9573    
Loop time of 35.1624 on 1 procs for 5000 steps with 3000 atoms

Performance: 12.286 ns/day, 1.953 hours/ns, 142.197 timesteps/s, 426.592 katom-step/s
100.0% CPU use with 1 MPI tasks x 1 OpenMP threads

MPI task timing breakdown:
Section |  min time  |  avg time  |  max time  |%varavg| %total
---------------------------------------------------------------
Pair    | 28.239     | 28.239     | 28.239     |   0.0 | 80.31
Bond    | 0.0025264  | 0.0025264  | 0.0025264  |   0.0 |  0.01
Kspace  | 4.7044     | 4.7044     | 4.7044     |   0.0 | 13.38
Neigh   | 1.1008     | 1.1008     | 1.1008     |   0.0 |  3.13
Comm    | 0.202      | 0.202      | 0.202      |   0.0 |  0.57
Output  | 0.00059914 | 0.00059914 | 0.00059914 |   0.0 |  0.00
Modify  | 0.83768    | 0.83768    | 0.83768    |   0.0 |  2.38
Other   |            | 0.07508    |            |       |  0.21

Nlocal:           3000 ave        3000 max        3000 min
Histogram: 1 0 0 0 0 0 0 0 0 0
Nghost:           9749 ave        9749 max        9749 min
Histogram: 1 0 0 0 0 0 0 0 0 0
Neighs:         678365 ave      678365 max      678365 min
Histogram: 1 0 0 0 0 0 0 0 0 0

Total # of neighbors = 678365
Ave neighs/atom = 226.12167
Ave special neighs/atom = 2
Neighbor list builds = 121
Dangerous builds = 0

# --- Equilibration in NPT with gentle pressure coupling ---
print "Starting NPT equilibration phase"
Starting NPT equilibration phase
unfix 2
fix 2 all npt temp 300.0 300.0 100.0 iso 1.0 1.0 2000.0  # Slow pressure coupling
thermo 1000
thermo_style custom step temp press vol density etotal

# Run NPT in stages with careful monitoring
print "NPT stage 1: 10ps"
NPT stage 1: 10ps
run 10000  # 10 ps initial NPT
PPPM initialization ...
  using 12-bit tables for long-range coulomb (src/kspace.cpp:342)
  G vector (1/distance) = 0.26094871
  grid = 20 20 20
  stencil order = 5
  estimated absolute RMS force accuracy = 0.024674246
  estimated relative force accuracy = 7.430576e-05
  using double precision FFTW3
  3d grid and FFT values/proc = 19683 8000
Generated 1 of 1 mixed pair_coeff terms from arithmetic mixing rule
Per MPI rank memory allocation (min/avg/max) = 12.61 | 12.61 | 12.61 Mbytes
   Step          Temp          Press          Volume        Density         TotEng    
      5282   290.51848     -193.90993      64000          0.46742614    -7523.9573    
      6000   295.25148     -461.82244      61551.701      0.48601862    -7534.7299    
      7000   295.92577     -298.48782      58206.672      0.51394921    -7609.8287    
      8000   303.53694     -165.20136      55203.84       0.54190565    -7602.3284    
      9000   307.59979     -106.36353      52628.85       0.56841966    -7693.4656    
     10000   306.22471     -308.36907      50774.677      0.58917702    -7744.1741    
     11000   293.37989     -337.8031       49144.377      0.6087222     -7717.8684    
     12000   295.0643      -242.5758       46873.354      0.63821489    -7848.7743    
     13000   304.78808     -238.12986      44574.931      0.67112326    -7767.9921    
     14000   297.07734     -99.774972      43011.504      0.69551794    -7998.7389    
     15000   299.01592     -238.74239      42018.78       0.71195006    -7962.481     
     15282   292.17067     -76.43964       41596.007      0.71918617    -7975.4657    
Loop time of 100.905 on 1 procs for 10000 steps with 3000 atoms

Performance: 8.562 ns/day, 2.803 hours/ns, 99.103 timesteps/s, 297.308 katom-step/s
100.0% CPU use with 1 MPI tasks x 1 OpenMP threads

MPI task timing breakdown:
Section |  min time  |  avg time  |  max time  |%varavg| %total
---------------------------------------------------------------
Pair    | 79.377     | 79.377     | 79.377     |   0.0 | 78.66
Bond    | 0.0065933  | 0.0065933  | 0.0065933  |   0.0 |  0.01
Kspace  | 9.2475     | 9.2475     | 9.2475     |   0.0 |  9.16
Neigh   | 4.3502     | 4.3502     | 4.3502     |   0.0 |  4.31
Comm    | 0.35137    | 0.35137    | 0.35137    |   0.0 |  0.35
Output  | 0.00045285 | 0.00045285 | 0.00045285 |   0.0 |  0.00
Modify  | 7.453      | 7.453      | 7.453      |   0.0 |  7.39
Other   |            | 0.1194     |            |       |  0.12

Nlocal:           3000 ave        3000 max        3000 min
Histogram: 1 0 0 0 0 0 0 0 0 0
Nghost:          12063 ave       12063 max       12063 min
Histogram: 1 0 0 0 0 0 0 0 0 0
Neighs:         979800 ave      979800 max      979800 min
Histogram: 1 0 0 0 0 0 0 0 0 0

Total # of neighbors = 979800
Ave neighs/atom = 326.6
Ave special neighs/atom = 2
Neighbor list builds = 349
Dangerous builds = 0

# Check and reset if needed
print "NPT stage 2: 20ps"
NPT stage 2: 20ps
run 20000  # 20 ps more NPT
PPPM initialization ...
  using 12-bit tables for long-range coulomb (src/kspace.cpp:342)
  G vector (1/distance) = 0.26421662
  grid = 18 18 18
  stencil order = 5
  estimated absolute RMS force accuracy = 0.025779529
  estimated relative force accuracy = 7.7634285e-05
  using double precision FFTW3
  3d grid and FFT values/proc = 15625 5832
Generated 1 of 1 mixed pair_coeff terms from arithmetic mixing rule
Per MPI rank memory allocation (min/avg/max) = 13.67 | 13.67 | 13.67 Mbytes
   Step          Temp          Press          Volume        Density         TotEng    
     15282   292.17067     -142.5665       41596.007      0.71918617    -7975.3696    
     16000   297.01354     -509.63099      40552.142      0.73769896    -8006.0995    
     17000   299.90509     -213.03458      39151.646      0.76408723    -7911.4631    
     18000   298.19679     -221.61501      37831.601      0.79074827    -8057.4718    
     19000   309.86719     -324.02825      36546.232      0.81855969    -7970.537     
     20000   301.7137      -640.49819      35743.588      0.83694096    -7936.0979    
     21000   299.73085     -113.3312       34213.523      0.87436984    -8088.5435    
     22000   294.28209     -233.49435      33206.488      0.90088637    -8030.3972    
     23000   308.06982     -575.32628      31982.525      0.93536308    -8095.4973    
     24000   300.97739     -748.8158       30979.36       0.96565175    -8125.5663    
     25000   301.60651      427.39513      30238.901      0.98929763    -8232.2845    
     26000   302.2786      -288.03307      30658.689      0.97575186    -8253.1553    
     27000   297.04979      242.24054      30087.174      0.99428657    -8316.5574    
     28000   297.69785     -712.46641      30063.586      0.9950667     -8353.6068    
     29000   301.97391      733.21975      29895.738      1.0006534     -8297.2947    
     30000   293.21684      153.80061      30018.253      0.99656943    -8295.577     
     31000   299.49645     -408.66221      30327.595      0.98640438    -8274.1004    
     32000   302.99702      83.818653      30389.102      0.98440792    -8297.4189    
     33000   309.49703      288.3338       30388.199      0.98443718    -8217.7528    
     34000   289.15903      235.2831       30279.908      0.98795785    -8367.7205    
     35000   304.84907      478.54446      29570.757      1.0116506     -8299.4379    
     35282   290.26349      795.55396      29538.26       1.0127635     -8335.3993    
Loop time of 262.927 on 1 procs for 20000 steps with 3000 atoms

Performance: 6.572 ns/day, 3.652 hours/ns, 76.067 timesteps/s, 228.200 katom-step/s
100.0% CPU use with 1 MPI tasks x 1 OpenMP threads

MPI task timing breakdown:
Section |  min time  |  avg time  |  max time  |%varavg| %total
---------------------------------------------------------------
Pair    | 216.38     | 216.38     | 216.38     |   0.0 | 82.30
Bond    | 0.017185   | 0.017185   | 0.017185   |   0.0 |  0.01
Kspace  | 19.612     | 19.612     | 19.612     |   0.0 |  7.46
Neigh   | 13.197     | 13.197     | 13.197     |   0.0 |  5.02
Comm    | 0.98152    | 0.98152    | 0.98152    |   0.0 |  0.37
Output  | 0.00087698 | 0.00087698 | 0.00087698 |   0.0 |  0.00
Modify  | 12.438     | 12.438     | 12.438     |   0.0 |  4.73
Other   |            | 0.3033     |            |       |  0.12

Nlocal:           3000 ave        3000 max        3000 min
Histogram: 1 0 0 0 0 0 0 0 0 0
Nghost:          14694 ave       14694 max       14694 min
Histogram: 1 0 0 0 0 0 0 0 0 0
Neighs:    1.24494e+06 ave 1.24494e+06 max 1.24494e+06 min
Histogram: 1 0 0 0 0 0 0 0 0 0

Total # of neighbors = 1244944
Ave neighs/atom = 414.98133
Ave special neighs/atom = 2
Neighbor list builds = 677
Dangerous builds = 0

print "NPT stage 3: 20ps"
NPT stage 3: 20ps
run 20000  # Final 20 ps NPT
PPPM initialization ...
  using 12-bit tables for long-range coulomb (src/kspace.cpp:342)
  G vector (1/distance) = 0.26390404
  grid = 16 16 16
  stencil order = 5
  estimated absolute RMS force accuracy = 0.031101262
  estimated relative force accuracy = 9.3660527e-05
  using double precision FFTW3
  3d grid and FFT values/proc = 12167 4096
Generated 1 of 1 mixed pair_coeff terms from arithmetic mixing rule
Per MPI rank memory allocation (min/avg/max) = 21.57 | 21.57 | 21.57 Mbytes
   Step          Temp          Press          Volume        Density         TotEng    
     35282   290.26349      800.7777       29538.26       1.0127635     -8335.4497    
     36000   295.9698      -472.958        30089.852      0.99419808    -8329.4603    
     37000   300.67326     -393.25624      30061.064      0.99515017    -8206.321     
     38000   301.90739      164.54683      29998.149      0.99723729    -8201.0747    
     39000   300.39861      201.93223      30028.077      0.99624337    -8247.8273    
     40000   308.1596      -516.73051      30437.206      0.98285213    -8189.4443    
     41000   300.93827      151.83743      29990.039      0.99750696    -8210.7561    
     42000   289.21035     -615.0406       30260.26       0.98859933    -8380.4479    
     43000   295.89386      46.162424      30399.134      0.98408306    -8334.3607    
     44000   303.68387     -734.54485      30439.836      0.98276721    -8279.8067    
     45000   295.2144       223.12594      29774.218      1.0047375     -8276.5869    
     46000   301.54294      338.46598      29968.622      0.99821984    -8186.3454    
     47000   304.18195     -19.205486      29791.531      1.0041536     -8223.4438    
     48000   293.04131     -90.319923      30002.209      0.99710235    -8381.1692    
     49000   295.68421      211.04944      30197.594      0.99065087    -8335.8034    
     50000   298.86372     -271.33337      30204.589      0.99042145    -8251.1419    
     51000   298.97457     -474.20131      30728.82       0.97352496    -8218.3079    
     52000   304.71901      627.23867      29759.944      1.0052194     -8311.172     
     53000   305.20052      76.367905      29982.854      0.99774601    -8213.7243    
     54000   294.30771     -164.95955      29756.53       1.0053347     -8317.8336    
     55000   297.57695     -138.34132      29959.574      0.99852131    -8237.8174    
     55282   299.85822     -357.22967      30070.215      0.99484732    -8224.0147    
Loop time of 272.953 on 1 procs for 20000 steps with 3000 atoms

Performance: 6.331 ns/day, 3.791 hours/ns, 73.273 timesteps/s, 219.818 katom-step/s
100.0% CPU use with 1 MPI tasks x 1 OpenMP threads

MPI task timing breakdown:
Section |  min time  |  avg time  |  max time  |%varavg| %total
---------------------------------------------------------------
Pair    | 229.61     | 229.61     | 229.61     |   0.0 | 84.12
Bond    | 0.012123   | 0.012123   | 0.012123   |   0.0 |  0.00
Kspace  | 17.105     | 17.105     | 17.105     |   0.0 |  6.27
Neigh   | 15.294     | 15.294     | 15.294     |   0.0 |  5.60
Comm    | 0.89811    | 0.89811    | 0.89811    |   0.0 |  0.33
Output  | 0.00087853 | 0.00087853 | 0.00087853 |   0.0 |  0.00
Modify  | 9.7939     | 9.7939     | 9.7939     |   0.0 |  3.59
Other   |            | 0.2389     |            |       |  0.09

Nlocal:           3000 ave        3000 max        3000 min
Histogram: 1 0 0 0 0 0 0 0 0 0
Nghost:          14542 ave       14542 max       14542 min
Histogram: 1 0 0 0 0 0 0 0 0 0
Neighs:    1.22308e+06 ave 1.22308e+06 max 1.22308e+06 min
Histogram: 1 0 0 0 0 0 0 0 0 0

Total # of neighbors = 1223080
Ave neighs/atom = 407.69333
Ave special neighs/atom = 2
Neighbor list builds = 672
Dangerous builds = 0

# --- Switch to NVT for production ---
print "Starting NVT production phase"
Starting NVT production phase
unfix 2
reset_timestep 0
fix 2 all nvt temp 300.0 300.0 100.0  # Nosé-Hoover thermostat

# --- Production run ---
# Define output frequency
variable nfreq equal 100   # Save every 100 steps = 100 fs
thermo ${nfreq}
thermo 100

# Create output directories
shell mkdir traj forces dump_images

# Output trajectory and force information
dump 1 all custom ${nfreq} traj/water_*.lammpstrj id type x y z
dump 1 all custom 100 traj/water_*.lammpstrj id type x y z
dump 2 all custom ${nfreq} forces/force_*.dump id type fx fy fz
dump 2 all custom 100 forces/force_*.dump id type fx fy fz

# Adjust "size", "zoom", and "view" as needed
dump           3 all image 1000 ./dump_images/image_*.png type type size 1024 1024 zoom 1.2 adiam 1.0
dump_modify    3 pad 5 # high-frequency, zero-padded for smooth GIF

# Force H (type 2) to white, O (type 1) stays red
dump_modify 3 acolor 1 red    acolor 2 white

# (optional) Add restart capability
restart 1000 restart.water

# Run production for 5 ns (5,000,000 steps)
print "Starting 5 ns production run..."
Starting 5 ns production run...
run 5000000
PPPM initialization ...
  using 12-bit tables for long-range coulomb (src/kspace.cpp:342)
  G vector (1/distance) = 0.26339761
  grid = 16 16 16
  stencil order = 5
  estimated absolute RMS force accuracy = 0.031659184
  estimated relative force accuracy = 9.5340693e-05
  using double precision FFTW3
  3d grid and FFT values/proc = 12167 4096
Generated 1 of 1 mixed pair_coeff terms from arithmetic mixing rule
Per MPI rank memory allocation (min/avg/max) = 21.57 | 21.57 | 21.57 Mbytes
   Step          Temp          Press          Volume        Density         TotEng    
         0   299.85822     -327.43997      30070.215      0.99484732    -8224.0086    
       100   299.33525      29.776859      30070.215      0.99484732    -8204.2817    
       200   311.83406     -352.81265      30070.215      0.99484732    -8155.5805    
       300   301.71487     -604.52885      30070.215      0.99484732    -8118.8639    
       400   306.23126      173.45237      30070.215      0.99484732    -8080.3142    
       500   297.83843     -239.60611      30070.215      0.99484732    -8113.8653    
       600   306.87653      709.80548      30070.215      0.99484732    -8193.5449    
       700   292.7208       323.66533      30070.215      0.99484732    -8235.0574    
       800   291.87118     -126.43889      30070.215      0.99484732    -8240.5561    
       900   297.51963      191.98305      30070.215      0.99484732    -8216.3506    
      1000   303.15408      177.60535      30070.215      0.99484732    -8262.4559    
      1100   299.61602     -418.10838      30070.215      0.99484732    -8332.4712    
      1200   294.3119      -426.33079      30070.215      0.99484732    -8328.8697    
      1300   300.83452      851.69467      30070.215      0.99484732    -8275.0771    
      1400   301.60389      106.33947      30070.215      0.99484732    -8246.1191    
      1500   304.66515      410.30089      30070.215      0.99484732    -8246.1305    
      1600   299.25086      407.31627      30070.215      0.99484732    -8336.0855    
      1700   293.88582     -642.57819      30070.215      0.99484732    -8369.1534    
      1800   293.35707      702.59398      30070.215      0.99484732    -8317.9778    
      1900   302.68354      557.8362       30070.215      0.99484732    -8265.1962    
      2000   301.46272     -26.789598      30070.215      0.99484732    -8259.0841    
      2100   298.52454     -471.20404      30070.215      0.99484732    -8222.3815    
      2200   296.42797      170.90259      30070.215      0.99484732    -8149.0187    
      2300   307.962        99.176526      30070.215      0.99484732    -8124.0299    
      2400   300.91189     -57.32061       30070.215      0.99484732    -8164.9519    
      2500   307.27387     -164.89566      30070.215      0.99484732    -8212.1799    
      2600   289.0487      -87.234022      30070.215      0.99484732    -8247.1129    
      2700   300.28561      108.27884      30070.215      0.99484732    -8216.1485    
      2800   300.18187      688.59925      30070.215      0.99484732    -8164.3933    
      2900   311.73832     -42.941589      30070.215      0.99484732    -8139.4999    
      3000   298.86783      318.6094       30070.215      0.99484732    -8208.0406    
      3100   298.38231     -290.08798      30070.215      0.99484732    -8268.6058    
      3200   296.42651     -33.162062      30070.215      0.99484732    -8311.0753    
      3300   291.03521      403.14002      30070.215      0.99484732    -8294.3252    
      3400   309.46617      167.90712      30070.215      0.99484732    -8226.956     
      3500   303.11438     -259.50275      30070.215      0.99484732    -8249.123     
      3600   301.37813      320.07258      30070.215      0.99484732    -8281.1848    
      3700   288.13204     -146.40275      30070.215      0.99484732    -8313.4748    
      3800   295.93293      75.028022      30070.215      0.99484732    -8276.4892    
      3900   305.34331      637.30896      30070.215      0.99484732    -8228.2343    
      4000   305.05231      104.49995      30070.215      0.99484732    -8228.5911    
      4100   296.83037      338.90815      30070.215      0.99484732    -8240.1253    
      4200   308.80561      104.91656      30070.215      0.99484732    -8239.5979    
      4300   297.28938      14.060105      30070.215      0.99484732    -8331.6423    
      4400   294.74418     -326.59647      30070.215      0.99484732    -8345.1897    
      4500   300.03256     -500.65973      30070.215      0.99484732    -8296.8076    
      4600   295.51524     -119.98893      30070.215      0.99484732    -8250.5799    
      4700   304.73506     -409.83578      30070.215      0.99484732    -8227.1229    
      4800   306.58787     -543.04708      30070.215      0.99484732    -8227.2126    
      4900   292.18457     -270.67513      30070.215      0.99484732    -8247.8607    
      5000   303.05533     -134.88222      30070.215      0.99484732    -8216.308     
      5100   304.99114     -314.21036      30070.215      0.99484732    -8211.616     
      5200   292.30901     -794.13108      30070.215      0.99484732    -8271.6635    
      5300   292.7413       284.88127      30070.215      0.99484732    -8272.3278    
      5400   303.72117      57.608314      30070.215      0.99484732    -8210.1866    
      5500   297.03156     -39.202473      30070.215      0.99484732    -8162.42      
      5600   299.89523     -279.43501      30070.215      0.99484732    -8152.2332    
      5700   298.1286       237.39736      30070.215      0.99484732    -8155.487     
      5800   305.72968     -639.83063      30070.215      0.99484732    -8180.083     
      5900   294.20668     -460.3097       30070.215      0.99484732    -8242.6476    
      6000   300.83703     -699.53938      30070.215      0.99484732    -8330.1841    
      6100   294.50524      497.10693      30070.215      0.99484732    -8333.5783    
      6200   296.41274      85.663459      30070.215      0.99484732    -8327.1227    
      6300   300.22161     -39.094428      30070.215      0.99484732    -8312.033     
      6400   308.47402     -5.4338426      30070.215      0.99484732    -8232.1031    
      6500   303.52839      386.72884      30070.215      0.99484732    -8213.3034    
      6600   302.47686      210.02848      30070.215      0.99484732    -8234.3475    
      6700   301.89687     -172.02056      30070.215      0.99484732    -8249.6987    
      6800   302.38574     -261.51924      30070.215      0.99484732    -8255.0048    
      6900   301.84751     -204.05802      30070.215      0.99484732    -8240.3095    
      7000   302.30831      237.69978      30070.215      0.99484732    -8232.2808    
      7100   301.63128     -136.01285      30070.215      0.99484732    -8240.868     
      7200   285.60712     -304.19235      30070.215      0.99484732    -8272.4089    
      7300   300.66316     -577.42725      30070.215      0.99484732    -8191.7745    
      7400   303.82868      66.0667        30070.215      0.99484732    -8161.3161    
      7500   304.77607     -214.17294      30070.215      0.99484732    -8183.9755    
      7600   302.04194     -746.52324      30070.215      0.99484732    -8215.5298    
      7700   303.83533     -188.00132      30070.215      0.99484732    -8284.902     
      7800   296.90282     -1049.1881      30070.215      0.99484732    -8332.13      
      7900   304.65369      144.89398      30070.215      0.99484732    -8318.2476    
      8000   299.63046      104.04969      30070.215      0.99484732    -8306.9934    
      8100   296.04382     -474.5436       30070.215      0.99484732    -8246.3245    
      8200   303.16549     -50.293384      30070.215      0.99484732    -8185.6395    
      8300   303.59037     -245.14698      30070.215      0.99484732    -8202.5015    
      8400   302.34496     -284.97284      30070.215      0.99484732    -8252.9853    
      8500   300.02864     -359.50419      30070.215      0.99484732    -8293.7584    
      8600   297.22822     -528.95181      30070.215      0.99484732    -8290.518     
      8700   292.59656     -22.839084      30070.215      0.99484732    -8257.1598    
      8800   304.34334     -614.1105       30070.215      0.99484732    -8218.3791    
      8900   302.10278     -746.83132      30070.215      0.99484732    -8213.0167    
      9000   303.63978     -386.15563      30070.215      0.99484732    -8231.9817    
      9100   298.42795      139.7614       30070.215      0.99484732    -8263.8462    
      9200   296.98711     -330.50564      30070.215      0.99484732    -8302.3955    
      9300   294.67844     -209.79877      30070.215      0.99484732    -8313.5857    
      9400   290.24405     -461.26839      30070.215      0.99484732    -8285.6044    
      9500   304.61654     -362.1522       30070.215      0.99484732    -8242.662     
      9600   309.83339      383.37152      30070.215      0.99484732    -8215.6219    
      9700   295.60916     -388.89262      30070.215      0.99484732    -8224.4102    
      9800   294.08285     -661.92416      30070.215      0.99484732    -8268.5401    
      9900   292.60031     -367.56065      30070.215      0.99484732    -8295.4665    
     10000   298.27393      244.46606      30070.215      0.99484732    -8275.2626    
     10100   303.90626      282.13836      30070.215      0.99484732    -8216.3969    
     10200   305.30124     -199.74193      30070.215      0.99484732    -8181.1027    
     10300   308.46502     -138.82337      30070.215      0.99484732    -8175.5253    
     10400   298.90778     -25.664036      30070.215      0.99484732    -8257.4178    
     10500   296.66336      357.27731      30070.215      0.99484732    -8306.5129    
     10600   300.82976     -650.11651      30070.215      0.99484732    -8333.1942    
     10700   294.00561      802.56854      30070.215      0.99484732    -8353.5755    
     10800   290.94466     -150.43765      30070.215      0.99484732    -8389.4187    
     10900   289.83412      233.61448      30070.215      0.99484732    -8406.908     
     11000   299.70503     -338.59823      30070.215      0.99484732    -8335.9237    
     11100   292.86981     -506.72723      30070.215      0.99484732    -8272.9064    
     11200   307.01156      188.51169      30070.215      0.99484732    -8239.7704    
     11300   306.96507     -402.21763      30070.215      0.99484732    -8279.7064    
     11400   298.93825     -445.51609      30070.215      0.99484732    -8322.6547    
     11500   296.33732     -55.465843      30070.215      0.99484732    -8322.818     
     11600   312.27773      813.53369      30070.215      0.99484732    -8230.3781    
     11700   305.36126      314.20273      30070.215      0.99484732    -8243.3382    
     11800   297.50838     -313.77805      30070.215      0.99484732    -8307.2054    
     11900   300.44764     -213.18252      30070.215      0.99484732    -8320.8395    
     12000   298.38523     -13.160411      30070.215      0.99484732    -8314.7055    
     12100   295.93923     -354.66328      30070.215      0.99484732    -8323.4627    
     12200   296.5812       427.24447      30070.215      0.99484732    -8342.8321    
     12300   300.19501      423.7212       30070.215      0.99484732    -8337.884     
     12400   301.31775      3.5290273      30070.215      0.99484732    -8294.4434    
     12500   304.57769     -353.07444      30070.215      0.99484732    -8248.5285    
     12600   308.07031     -18.927383      30070.215      0.99484732    -8211.0565    
     12700   313.3487       517.8883       30070.215      0.99484732    -8163.7695    
     12800   300.41615      22.315924      30070.215      0.99484732    -8163.1824    
     12900   289.86248      338.95248      30070.215      0.99484732    -8224.2598    
     13000   293.85491      159.2486       30070.215      0.99484732    -8248.946     
     13100   298.02399     -190.92065      30070.215      0.99484732    -8256.3192    
     13200   296.25714     -252.19851      30070.215      0.99484732    -8226.52      
     13300   307.64363      308.32749      30070.215      0.99484732    -8160.855     
     13400   301.88554      594.92983      30070.215      0.99484732    -8193.8545    
     13500   301.5655       214.90259      30070.215      0.99484732    -8246.1565    
     13600   293.69409      52.880744      30070.215      0.99484732    -8278.66      
     13700   299.14318      290.12724      30070.215      0.99484732    -8276.6044    
     13800   300.05378      487.68069      30070.215      0.99484732    -8280.9341    
     13900   297.58617      522.37749      30070.215      0.99484732    -8298.5658    
     14000   296.72891      252.96299      30070.215      0.99484732    -8307.9667    
     14100   303.43122     -121.19025      30070.215      0.99484732    -8296.6343    
     14200   294.28507      464.23999      30070.215      0.99484732    -8312.1037    
     14300   290.34737     -44.962735      30070.215      0.99484732    -8319.4115    
     14400   299.52814     -26.100299      30070.215      0.99484732    -8285.6479    
     14500   311.04333      437.12186      30070.215      0.99484732    -8239.9072    
     14600   310.65879     -376.10196      30070.215      0.99484732    -8226.5385    
     14700   299.91159     -82.232354      30070.215      0.99484732    -8280.2724    
     14800   294.0993       316.15487      30070.215      0.99484732    -8337.3298    
     14900   297.63839     -125.25127      30070.215      0.99484732    -8344.9787    
     15000   297.55011      477.73806      30070.215      0.99484732    -8289.689     
     15100   305.55397      240.33237      30070.215      0.99484732    -8228.2537    
     15200   299.82391      143.06042      30070.215      0.99484732    -8230.4663    
     15300   301.50421      151.68642      30070.215      0.99484732    -8238.6765    
     15400   294.2105       88.752196      30070.215      0.99484732    -8292.9158    
     15500   294.76344      420.4195       30070.215      0.99484732    -8365.8596    
     15600   284.89932      809.80269      30070.215      0.99484732    -8344.2487    
     15700   308.52757      218.40301      30070.215      0.99484732    -8296.5361    
     15800   297.07222     -64.866541      30070.215      0.99484732    -8291.5002    
     15900   301.83372     -185.22425      30070.215      0.99484732    -8256.0561    
     16000   299.73318     -358.78374      30070.215      0.99484732    -8195.3475    
     16100   309.17119      156.54675      30070.215      0.99484732    -8187.6975    
     16200   302.75534     -149.1653       30070.215      0.99484732    -8225.1817    
     16300   302.73413      89.058689      30070.215      0.99484732    -8249.2711    
     16400   296.65181     -337.87913      30070.215      0.99484732    -8268.977     
     16500   301.90249     -455.51864      30070.215      0.99484732    -8238.6986    
     16600   309.6847      -205.73097      30070.215      0.99484732    -8168.6957    
     16700   306.5045       505.86846      30070.215      0.99484732    -8187.5688    
     16800   292.56788     -160.48695      30070.215      0.99484732    -8273.8218    
     16900   299.1119       25.767412      30070.215      0.99484732    -8269.3207    
     17000   303.77512     -403.83631      30070.215      0.99484732    -8242.1261    
     17100   312.91147      156.48315      30070.215      0.99484732    -8218.253     
     17200   292.33666     -113.50071      30070.215      0.99484732    -8246.7236    
     17300   303.64765      248.40271      30070.215      0.99484732    -8249.9052    
     17400   298.61722     -478.38495      30070.215      0.99484732    -8259.7447    
     17500   302.67084     -340.84415      30070.215      0.99484732    -8283.0887    
     17600   298.88242     -370.90388      30070.215      0.99484732    -8296.0163    
     17700   290.29705      73.040041      30070.215      0.99484732    -8286.3079    
     17800   306.1012      -361.34227      30070.215      0.99484732    -8236.4247    
     17900   299.81642      515.17318      30070.215      0.99484732    -8203.3311    
     18000   305.80868     -100.06004      30070.215      0.99484732    -8213.0718    
     18100   290.08262     -328.20787      30070.215      0.99484732    -8297.5023    
     18200   292.52705      107.12834      30070.215      0.99484732    -8304.7484    
     18300   301.08359      183.92912      30070.215      0.99484732    -8262.4196    
     18400   307.97575      477.40145      30070.215      0.99484732    -8207.7677    
     18500   307.68905      656.666        30070.215      0.99484732    -8217.4579    
     18600   304.61694      238.07941      30070.215      0.99484732    -8254.2964    
     18700   301.50353      412.28224      30070.215      0.99484732    -8283.8751    
     18800   299.87834     -307.55841      30070.215      0.99484732    -8291.6258    
     18900   302.80575     -36.142918      30070.215      0.99484732    -8265.2886    
     19000   308.64769     -504.88151      30070.215      0.99484732    -8189.2259    
     19100   306.09337      212.63792      30070.215      0.99484732    -8170.1869    
     19200   294.40152     -86.877015      30070.215      0.99484732    -8216.7443    
     19300   294.34631     -427.2377       30070.215      0.99484732    -8250.9272    
     19400   295.87584     -441.88518      30070.215      0.99484732    -8259.853     
     19500   303.42833     -19.632373      30070.215      0.99484732    -8188.3028    
     19600   304.83429     -756.15158      30070.215      0.99484732    -8174.0161    
     19700   301.38302     -235.46375      30070.215      0.99484732    -8195.3453    
     19800   300.58105     -280.03674      30070.215      0.99484732    -8242.7821    
     19900   295.84768     -438.96479      30070.215      0.99484732    -8290.267     
     20000   299.88394     -81.529276      30070.215      0.99484732    -8269.368     
     20100   311.37813     -109.82801      30070.215      0.99484732    -8183.408     
     20200   303.0678      -335.25846      30070.215      0.99484732    -8155.9208    
     20300   303.20703     -793.59218      30070.215      0.99484732    -8178.4152    
     20400   302.25259     -849.83793      30070.215      0.99484732    -8281.7841    
     20500   294.77631      409.52863      30070.215      0.99484732    -8321.6911    
     20600   295.88185      26.136173      30070.215      0.99484732    -8341.0943    
     20700   294.38056      389.87014      30070.215      0.99484732    -8310.6471    
     20800   300.6394      -640.28939      30070.215      0.99484732    -8226.617     
     20900   298.34815      330.23061      30070.215      0.99484732    -8205.0529    
     21000   304.47625      307.14181      30070.215      0.99484732    -8231.1727    
     21100   296.98503      146.04474      30070.215      0.99484732    -8286.2705    
     21200   300.52596      101.4995       30070.215      0.99484732    -8290.6541    
     21300   295.18811      331.05115      30070.215      0.99484732    -8289.5826    
     21400   299.46274     -57.53596       30070.215      0.99484732    -8294.2912    
     21500   305.73698     -262.64297      30070.215      0.99484732    -8297.9461    
     21600   297.19137     -204.13916      30070.215      0.99484732    -8297.5349    
     21700   301.30742     -14.571246      30070.215      0.99484732    -8237.3624    
     21800   298.74518      258.49991      30070.215      0.99484732    -8203.3835    
     21900   303.19589     -204.04495      30070.215      0.99484732    -8224.4071    
     22000   296.67318     -325.36362      30070.215      0.99484732    -8279.5988    
     22100   298.26757     -447.73029      30070.215      0.99484732    -8286.3187    
     22200   296.78232     -54.568562      30070.215      0.99484732    -8276.1756    
     22300   301.44476     -39.359262      30070.215      0.99484732    -8241.0645    
     22400   304.53733      396.53929      30070.215      0.99484732    -8194.2048    
     22500   296.50131      388.27629      30070.215      0.99484732    -8218.4305    
     22600   292.0268       277.6408       30070.215      0.99484732    -8307.3602    
     22700   299.14868      151.84161      30070.215      0.99484732    -8313.8399    
     22800   304.35289      35.939442      30070.215      0.99484732    -8290.9983    
     22900   302.45286      198.19872      30070.215      0.99484732    -8281.5318    
     23000   297.67885     -255.64294      30070.215      0.99484732    -8294.5708    
     23100   300.97432     -108.73546      30070.215      0.99484732    -8295.8574    
     23200   308.54132      505.66455      30070.215      0.99484732    -8245.9494    
     23300   302.27826      408.29225      30070.215      0.99484732    -8200.0612    
     23400   307.05719      94.18931       30070.215      0.99484732    -8202.1883    
     23500   293.62133      389.17318      30070.215      0.99484732    -8287.2084    
     23600   303.13759      117.86835      30070.215      0.99484732    -8319.2561    
     23700   298.70399     -281.0483       30070.215      0.99484732    -8287.5817    
     23800   304.23824     -354.63838      30070.215      0.99484732    -8256.8689    
     23900   296.07374     -350.62671      30070.215      0.99484732    -8265.0023    
     24000   302.03982      61.359974      30070.215      0.99484732    -8289.2299    
     24100   289.14821     -148.22899      30070.215      0.99484732    -8343.4092    
     24200   294.08949     -485.95323      30070.215      0.99484732    -8323.6091    
     24300   300.9722       23.939678      30070.215      0.99484732    -8251.3026    
     24400   304.25236      306.31617      30070.215      0.99484732    -8223.548     
     24500   298.16744      610.8913       30070.215      0.99484732    -8226.4736    
     24600   302.26594     -244.02313      30070.215      0.99484732    -8253.995     
     24700   285.79279     -410.12024      30070.215      0.99484732    -8340.171     
     24800   294.85064     -589.85492      30070.215      0.99484732    -8307.2123    
     24900   303.28262      276.37872      30070.215      0.99484732    -8250.9898    
     25000   296.08661      837.48786      30070.215      0.99484732    -8234.1119    
     25100   301.29502     -298.55972      30070.215      0.99484732    -8228.3524    
     25200   295.895        62.686858      30070.215      0.99484732    -8227.6325    
     25300   312.65629      484.17167      30070.215      0.99484732    -8152.1778    
     25400   300.27041      792.40209      30070.215      0.99484732    -8174.0825    
     25500   295.94556      320.73649      30070.215      0.99484732    -8236.9074    
     25600   295.39553      231.97708      30070.215      0.99484732    -8262.5069    
     25700   300.87135      636.39962      30070.215      0.99484732    -8276.1584    
     25800   300.94245      849.03298      30070.215      0.99484732    -8291.843     
     25900   296.42439     -513.48002      30070.215      0.99484732    -8317.7114    
     26000   294.89168     -43.891106      30070.215      0.99484732    -8328.4386    
     26100   293.86428      136.74853      30070.215      0.99484732    -8276.7013    
     26200   302.47101      398.34359      30070.215      0.99484732    -8220.6445    
     26300   296.77005      153.70352      30070.215      0.99484732    -8227.8694    
     26400   298.20019      364.29558      30070.215      0.99484732    -8275.126     
     26500   294.10941     -74.824836      30070.215      0.99484732    -8338.9859    
     26600   290.56206      177.89221      30070.215      0.99484732    -8319.6124    
     26700   308.10686      0.10745162     30070.215      0.99484732    -8303.777     
     26800   297.01903      78.5858        30070.215      0.99484732    -8334.7415    
     26900   299.57401     -56.853333      30070.215      0.99484732    -8342.1565    
     27000   297.3196      -199.27429      30070.215      0.99484732    -8310.5576    
     27100   304.82191      657.80935      30070.215      0.99484732    -8253.0733    
     27200   303.10422     -123.10281      30070.215      0.99484732    -8240.4714    
     27300   307.08898     -424.18818      30070.215      0.99484732    -8302.6526    
     27400   293.5272      -48.932598      30070.215      0.99484732    -8360.091     
     27500   298.05141     -319.55228      30070.215      0.99484732    -8341.2147    
     27600   298.04802     -161.12088      30070.215      0.99484732    -8286.7068    
     27700   306           -62.137445      30070.215      0.99484732    -8237.5104    
     27800   306.58907     -320.43253      30070.215      0.99484732    -8244.0721    
     27900   301.40226      72.689437      30070.215      0.99484732    -8253.8025    
     28000   297.05447      92.363906      30070.215      0.99484732    -8283.6741    
     28100   294.0236       6.2786741      30070.215      0.99484732    -8327.8695    
     28200   295.69131     -280.48501      30070.215      0.99484732    -8337.6961    
     28300   307.04239     -389.09625      30070.215      0.99484732    -8249.6837    
     28400   309.2045       456.20213      30070.215      0.99484732    -8209.824     
     28500   306.41333     -362.65806      30070.215      0.99484732    -8256.5586    
     28600   287.76025     -181.48259      30070.215      0.99484732    -8299.6858    
     28700   307.07891     -675.55589      30070.215      0.99484732    -8280.5492    
     28800   295.31621     -63.735988      30070.215      0.99484732    -8231.2118    
     28900   307.85676     -152.72076      30070.215      0.99484732    -8154.6629    
     29000   306.07533      116.67945      30070.215      0.99484732    -8170.53      
     29100   306.43694      98.912248      30070.215      0.99484732    -8231.1703    
     29200   299.30546      182.44553      30070.215      0.99484732    -8266.5422    
     29300   292.01348     -240.57525      30070.215      0.99484732    -8287.4865    
     29400   298.99791     -172.05746      30070.215      0.99484732    -8313.7357    
     29500   288.81451     -340.0943       30070.215      0.99484732    -8370.295     
     29600   308.60473     -538.13585      30070.215      0.99484732    -8365.6506    
     29700   299.38847     -650.63357      30070.215      0.99484732    -8311.9221    
     29800   302.24703     -774.92546      30070.215      0.99484732    -8242.5666    
     29900   295.09522     -430.12662      30070.215      0.99484732    -8214.7839    
     30000   311.29487      367.17672      30070.215      0.99484732    -8211.1214    
     30100   302.3894       38.041292      30070.215      0.99484732    -8288.036     
     30200   291.651        172.36601      30070.215      0.99484732    -8309.2232    
     30300   301.01757     -281.5166       30070.215      0.99484732    -8268.7064    
     30400   305.06652      292.32679      30070.215      0.99484732    -8235.0096    
     30500   286.39752      135.22933      30070.215      0.99484732    -8266.8817    
     30600   296.06536     -266.82722      30070.215      0.99484732    -8331.7626    
     30700   288.21786     -207.20971      30070.215      0.99484732    -8368.6264    
     30800   296.94951     -737.35268      30070.215      0.99484732    -8311.3882    
     30900   294.23921      21.272353      30070.215      0.99484732    -8276.6913    
     31000   294.39922     -230.09911      30070.215      0.99484732    -8258.7766    
     31100   301.44852      498.71024      30070.215      0.99484732    -8213.945     
     31200   305.38618      544.76526      30070.215      0.99484732    -8186.5082    
     31300   305.11606     -210.22064      30070.215      0.99484732    -8163.4992    
     31400   299.53362     -244.73613      30070.215      0.99484732    -8175.5458    
     31500   301.28497     -302.75062      30070.215      0.99484732    -8230.8404    
     31600   296.23332     -459.49648      30070.215      0.99484732    -8283.7928    
     31700   297.78595     -254.44574      30070.215      0.99484732    -8315.7388    
     31800   292.04689     -294.9057       30070.215      0.99484732    -8339.9847    
     31900   288.72296      345.61077      30070.215      0.99484732    -8314.0486    
     32000   294.67681      441.99501      30070.215      0.99484732    -8235.1175    
     32100   304.61113      119.52699      30070.215      0.99484732    -8189.1112    
     32200   304.48269      130.87626      30070.215      0.99484732    -8211.2346    
     32300   300.11767      131.76081      30070.215      0.99484732    -8268.7441    
     32400   297.75935      304.15533      30070.215      0.99484732    -8307.8155    
     32500   303.94772      108.43354      30070.215      0.99484732    -8312.8365    
     32600   299.19685     -80.884774      30070.215      0.99484732    -8304.6186    
     32700   299.25897     -227.08615      30070.215      0.99484732    -8266.1374    
     32800   293.10328     -151.9574       30070.215      0.99484732    -8231.2108    
     32900   311.5565       719.75109      30070.215      0.99484732    -8160.8838    
     33000   307.64259      430.18429      30070.215      0.99484732    -8137.3771    
     33100   295.84863     -440.66266      30070.215      0.99484732    -8224.867     
     33200   296.25334      219.01182      30070.215      0.99484732    -8227.6298    
     33300   299.68369     -66.594322      30070.215      0.99484732    -8215.9655    
     33400   306.79297      132.43736      30070.215      0.99484732    -8223.5882    
     33500   302.63676      586.21308      30070.215      0.99484732    -8243.8773    
     33600   301.20264     -376.41384      30070.215      0.99484732    -8316.022     
     33700   286.49839     -212.52254      30070.215      0.99484732    -8344.3628    
     33800   300.84926     -85.502244      30070.215      0.99484732    -8310.7865    
     33900   304.31558     -300.47432      30070.215      0.99484732    -8264.9847    
     34000   311.94878      444.51892      30070.215      0.99484732    -8195.1242    
     34100   305.78471      475.8819       30070.215      0.99484732    -8181.8803    
     34200   304.45824     -546.36221      30070.215      0.99484732    -8273.914     
     34300   301.55277      517.65663      30070.215      0.99484732    -8304.8204    
     34400   302.00914     -38.335554      30070.215      0.99484732    -8304.1662    
     34500   292.31272      200.70988      30070.215      0.99484732    -8267.302     
     34600   310.7635      -286.78126      30070.215      0.99484732    -8198.537     
     34700   302.23209      124.80674      30070.215      0.99484732    -8240.2656    
     34800   300.0086      -498.24706      30070.215      0.99484732    -8278.4551    
     34900   293.80771      161.73138      30070.215      0.99484732    -8277.9845    
     35000   298.39831     -315.45285      30070.215      0.99484732    -8251.8621    
     35100   302.98724     -326.95826      30070.215      0.99484732    -8212.4323    
     35200   314.83319      98.513946      30070.215      0.99484732    -8166.4118    
     35300   303.20638      464.74037      30070.215      0.99484732    -8226.4276    
     35400   304.34539      56.513535      30070.215      0.99484732    -8289.6285    
     35500   289.75418      524.96693      30070.215      0.99484732    -8296.0858    
     35600   290.91239      285.92515      30070.215      0.99484732    -8272.0344    
     35700   308.48552      192.91374      30070.215      0.99484732    -8207.6052    
     35800   305.35534      543.55139      30070.215      0.99484732    -8212.0804    
     35900   298.8352       21.31954       30070.215      0.99484732    -8313.9838    
     36000   296.44598     -122.90309      30070.215      0.99484732    -8328.8131    
     36100   305.64277      758.22416      30070.215      0.99484732    -8299.3429    
     36200   300.76764     -89.738292      30070.215      0.99484732    -8278.7667    
     36300   293.9303       825.90082      30070.215      0.99484732    -8262.0447    
     36400   300.68501     -476.44496      30070.215      0.99484732    -8249.3719    
     36500   308.14338     -357.30168      30070.215      0.99484732    -8214.9728    
     36600   309.75696     -66.28059       30070.215      0.99484732    -8181.5887    
     36700   305.06411      31.319133      30070.215      0.99484732    -8184.2387    
     36800   292.34207      432.38518      30070.215      0.99484732    -8203.6196    
     36900   302.04892      694.74892      30070.215      0.99484732    -8229.172     
     37000   295.19845      412.95806      30070.215      0.99484732    -8306.2731    
     37100   298.11228      327.04699      30070.215      0.99484732    -8334.4367    
     37200   310.96787      46.822341      30070.215      0.99484732    -8324.4617    
     37300   294.94948      391.28836      30070.215      0.99484732    -8286.1651    
     37400   299.51748      490.29178      30070.215      0.99484732    -8200.5572    
     37500   299.23876      351.3827       30070.215      0.99484732    -8171.1096    
     37600   312.25895      11.502764      30070.215      0.99484732    -8161.7406    
     37700   299.64503     -609.22927      30070.215      0.99484732    -8220.0826    
     37800   292.32701      101.52842      30070.215      0.99484732    -8289.8323    
     37900   299.55689     -256.61658      30070.215      0.99484732    -8275.4876    
     38000   305.43191     -616.54575      30070.215      0.99484732    -8231.0453    
     38100   303.59882     -237.3975       30070.215      0.99484732    -8194.7193    
     38200   301.36336      81.946409      30070.215      0.99484732    -8172.5332    
     38300   305.88109      193.87311      30070.215      0.99484732    -8161.2599    
     38400   299.84638     -490.51936      30070.215      0.99484732    -8241.7932    
     38500   288.64556     -202.31492      30070.215      0.99484732    -8289.7131    
     38600   299.41803      10.46626       30070.215      0.99484732    -8238.4714    
     38700   293.17307      69.642762      30070.215      0.99484732    -8192.3278    
     38800   304.87446      264.84784      30070.215      0.99484732    -8147.5282    
     38900   309.24833     -21.485454      30070.215      0.99484732    -8149.1937    
     39000   295.82032     -428.60921      30070.215      0.99484732    -8231.6182    
     39100   293.75337     -519.04659      30070.215      0.99484732    -8262.1119    
     39200   295.51837      642.47637      30070.215      0.99484732    -8241.9639    
     39300   307.84389      282.48767      30070.215      0.99484732    -8237.897     
     39400   297.30525     -226.53497      30070.215      0.99484732    -8295.5506    
     39500   287.35546      258.21835      30070.215      0.99484732    -8336.6561    
     39600   298.41803      600.41296      30070.215      0.99484732    -8299.9859    
     39700   294.05951      399.13254      30070.215      0.99484732    -8290.2148    
     39800   298.26698     -292.38364      30070.215      0.99484732    -8281.4741    
     39900   304.61939     -51.019114      30070.215      0.99484732    -8292.5725    
     40000   297.84013     -585.7604       30070.215      0.99484732    -8304.2696    
     40100   301.00935      72.547564      30070.215      0.99484732    -8318.4194    
     40200   289.55971     -4.8781093      30070.215      0.99484732    -8363.6579    
     40300   309.48408     -691.2189       30070.215      0.99484732    -8354.5748    
     40400   293.09604      98.669004      30070.215      0.99484732    -8321.0207    
     40500   293.42138      487.66485      30070.215      0.99484732    -8246.0166    
     40600   308.84544      22.520468      30070.215      0.99484732    -8207.9425    
     40700   293.86112     -100.05806      30070.215      0.99484732    -8236.5798    
     40800   294.60199     -117.95407      30070.215      0.99484732    -8235.8841    
     40900   313.36299      3.2566057      30070.215      0.99484732    -8160.9131    
     41000   305.3304       487.95084      30070.215      0.99484732    -8142.1926    
     41100   295.11249      683.06524      30070.215      0.99484732    -8196.0257    
     41200   306.69477      129.55788      30070.215      0.99484732    -8244.8329    
     41300   300.62961      15.428514      30070.215      0.99484732    -8251.3526    
     41400   303.08822     -205.60698      30070.215      0.99484732    -8245.1505    
     41500   299.75639      159.38719      30070.215      0.99484732    -8267.5469    
     41600   290.2344      -205.80248      30070.215      0.99484732    -8310.9017    
     41700   293.91059      21.161207      30070.215      0.99484732    -8267.8917    
     41800   298.64727     -160.09841      30070.215      0.99484732    -8200.5548    
     41900   305.10374      26.476824      30070.215      0.99484732    -8188.2932    
     42000   298.49184      378.2067       30070.215      0.99484732    -8206.1444    
     42100   293.95566      723.95472      30070.215      0.99484732    -8243.6991    
     42200   284.61906      725.50302      30070.215      0.99484732    -8288.0623    
     42300   298.90331     -378.44139      30070.215      0.99484732    -8323.5542    
     42400   297.47414      393.98572      30070.215      0.99484732    -8293.4694    
     42500   301.91878      975.33993      30070.215      0.99484732    -8238.139     
     42600   299.24955      174.24675      30070.215      0.99484732    -8234.5203    
     42700   293.33247      62.211292      30070.215      0.99484732    -8249.2254    
     42800   302.96913      208.16826      30070.215      0.99484732    -8248.0447    
     42900   294.97282      439.20178      30070.215      0.99484732    -8230.2696    
     43000   308.21568      209.31561      30070.215      0.99484732    -8169.0885    
     43100   306.94223     -69.218325      30070.215      0.99484732    -8164.6649    
     43200   295.66024      8.6294795      30070.215      0.99484732    -8207.6648    
     43300   294.2184      -325.27688      30070.215      0.99484732    -8271.9398    
     43400   296.85145     -23.903062      30070.215      0.99484732    -8287.7478    
     43500   303.03533      145.2947       30070.215      0.99484732    -8227.9301    
     43600   309.54429     -49.384447      30070.215      0.99484732    -8162.0094    
     43700   311.99651      268.75465      30070.215      0.99484732    -8197.8381    
     43800   292.65966      227.72217      30070.215      0.99484732    -8252.3446    
     43900   299.09516      51.239054      30070.215      0.99484732    -8244.7303    
     44000   301.27587     -84.792416      30070.215      0.99484732    -8228.3042    
     44100   296.15704     -27.438572      30070.215      0.99484732    -8261.9208    
     44200   296.78123     -377.72374      30070.215      0.99484732    -8290.0802    
     44300   297.73052     -44.645194      30070.215      0.99484732    -8309.8674    
     44400   303.12938      177.00814      30070.215      0.99484732    -8310.9798    
     44500   287.14645     -673.3656       30070.215      0.99484732    -8338.0376    
     44600   313.07883     -414.03208      30070.215      0.99484732    -8260.5132    
     44700   306.56815      34.665996      30070.215      0.99484732    -8247.9693    
     44800   294.68893     -94.171506      30070.215      0.99484732    -8271.6214    
     44900   298.23975     -183.60452      30070.215      0.99484732    -8257.6876    
     45000   315.94886      139.97694      30070.215      0.99484732    -8212.844     
     45100   306.87452     -163.46732      30070.215      0.99484732    -8225.9448    
     45200   304.40833      145.66351      30070.215      0.99484732    -8290.7039    
     45300   293.44618     -174.84901      30070.215      0.99484732    -8326.9868    
     45400   300.74001      288.71231      30070.215      0.99484732    -8294.529     
     45500   300.18039      273.82348      30070.215      0.99484732    -8267.2441    
     45600   304.87689     -316.31224      30070.215      0.99484732    -8259.3509    
     45700   304.44738      224.55322      30070.215      0.99484732    -8269.4495    
     45800   297.86707      320.18796      30070.215      0.99484732    -8308.1997    
     45900   285.70985      127.99726      30070.215      0.99484732    -8329.71      
     46000   299.88931      276.85569      30070.215      0.99484732    -8301.0722    
     46100   291.53028     -122.35992      30070.215      0.99484732    -8284.6622    
     46200   299.89025     -32.022077      30070.215      0.99484732    -8245.9115    
     46300   300.52558     -95.689502      30070.215      0.99484732    -8209.9627    
     46400   303.79562      31.841391      30070.215      0.99484732    -8203.5916    
     46500   296.79106     -543.82706      30070.215      0.99484732    -8235.9402    
     46600   292.74049      117.47927      30070.215      0.99484732    -8319.2483    
     46700   290.67859      86.962177      30070.215      0.99484732    -8312.4859    
     46800   303.52781      490.04835      30070.215      0.99484732    -8247.4886    
     46900   301.49112      119.11736      30070.215      0.99484732    -8246.4456    
     47000   293.47522     -207.99762      30070.215      0.99484732    -8284.9643    
     47100   299.19846     -270.25164      30070.215      0.99484732    -8275.6154    
     47200   305.50569     -73.484257      30070.215      0.99484732    -8252.2067    
     47300   302.46298      408.43283      30070.215      0.99484732    -8274.4652    
     47400   295.36028     -504.44003      30070.215      0.99484732    -8362.8264    
     47500   292.72223     -74.944113      30070.215      0.99484732    -8386.2081    
     47600   306.91284      251.95752      30070.215      0.99484732    -8337.7665    
     47700   303.369        233.04847      30070.215      0.99484732    -8316.5577    
     47800   299.84005     -106.86003      30070.215      0.99484732    -8289.1769    
     47900   306.17645     -27.115891      30070.215      0.99484732    -8178.6927    
     48000   307.08351      240.59918      30070.215      0.99484732    -8170.0288    
     48100   299.35285     -115.47617      30070.215      0.99484732    -8243.0798    
     48200   296.85135      901.38233      30070.215      0.99484732    -8281.3696    
     48300   301.15765     -181.34123      30070.215      0.99484732    -8304.1355    
     48400   296.93691      206.88281      30070.215      0.99484732    -8299.3405    
     48500   303.98767      164.08743      30070.215      0.99484732    -8247.9248    
     48600   309.03611     -61.187381      30070.215      0.99484732    -8212.8221    
     48700   297.47098      228.07084      30070.215      0.99484732    -8239.3691    
     48800   295.9225      -723.09434      30070.215      0.99484732    -8320.684     
     48900   296.60678     -158.59645      30070.215      0.99484732    -8342.3261    
     49000   295.8766      -834.18246      30070.215      0.99484732    -8294.455     
     49100   301.29084     -412.93485      30070.215      0.99484732    -8263.2829    
     49200   297.65248     -577.50397      30070.215      0.99484732    -8285.2394    
     49300   306.47712     -371.44862      30070.215      0.99484732    -8288.7037    
     49400   306.31613     -626.73179      30070.215      0.99484732    -8301.2818    
     49500   295.69439     -254.31236      30070.215      0.99484732    -8353.871     
     49600   298.52329     -807.75853      30070.215      0.99484732    -8377.6178    
     49700   295.85872     -276.23977      30070.215      0.99484732    -8319.0985    
     49800   307.51973      590.41922      30070.215      0.99484732    -8277.3468    
     49900   295.36028      160.73326      30070.215      0.99484732    -8305.0721    
     50000   297.93478      99.678926      30070.215      0.99484732    -8336.4715    
     50100   291.06515      67.913961      30070.215      0.99484732    -8345.0633    
     50200   303.39649      702.9462       30070.215      0.99484732    -8278.7961    
     50300   303.34228      192.79127      30070.215      0.99484732    -8248.6467    
     50400   302.68295      46.548608      30070.215      0.99484732    -8253.5802    
     50500   291.48253      131.22573      30070.215      0.99484732    -8314.6122    
     50600   295.14801     -315.66325      30070.215      0.99484732    -8357.248     
     50700   291.64208     -224.06725      30070.215      0.99484732    -8315.8003    
     50800   302.75799      614.59834      30070.215      0.99484732    -8271.5438    
     50900   288.64355      8.6079799      30070.215      0.99484732    -8274.6579    
     51000   302.78045      512.3211       30070.215      0.99484732    -8247.7409    
     51100   308.12693      339.48306      30070.215      0.99484732    -8190.539     
     51200   303.61462     -152.85991      30070.215      0.99484732    -8194.0169    
     51300   293.92417     -451.89083      30070.215      0.99484732    -8292.4476    
     51400   297.2044      -648.63652      30070.215      0.99484732    -8285.1332    
     51500   305.65133     -73.656299      30070.215      0.99484732    -8239.1023    
     51600   294.07624      550.81049      30070.215      0.99484732    -8219.4907    
     51700   310.73471     -1.0264842      30070.215      0.99484732    -8187.221     
     51800   301.75497     -26.082111      30070.215      0.99484732    -8192.1547    
     51900   296.16225     -724.21886      30070.215      0.99484732    -8235.1809    
     52000   291.59408     -568.31918      30070.215      0.99484732    -8239.9283    
     52100   310.83471      157.21918      30070.215      0.99484732    -8184.365     
     52200   304.74572      356.60389      30070.215      0.99484732    -8189.6339    
     52300   291.64425     -320.92551      30070.215      0.99484732    -8269.0747    
     52400   293.77458     -30.348707      30070.215      0.99484732    -8296.7747    
     52500   295.10754     -183.88412      30070.215      0.99484732    -8285.4392    
     52600   298.03452      111.3632       30070.215      0.99484732    -8263.0596    
     52700   303.19724      193.80784      30070.215      0.99484732    -8227.3414    
     52800   312.19114     -228.33198      30070.215      0.99484732    -8191.0693    
     52900   297.94266     -166.09402      30070.215      0.99484732    -8263.8279    
     53000   296.24808      40.695511      30070.215      0.99484732    -8310.4524    
     53100   297.97873      411.90157      30070.215      0.99484732    -8293.6144    
     53200   298.50427      194.07016      30070.215      0.99484732    -8249.9619    
     53300   311.81935      171.40637      30070.215      0.99484732    -8216.5377    
     53400   309.69833      321.28191      30070.215      0.99484732    -8201.5245    
     53500   299.71084     -82.340882      30070.215      0.99484732    -8263.0923    
     53600   301.14252     -618.13508      30070.215      0.99484732    -8310.1593    
     53700   301.48244      410.17816      30070.215      0.99484732    -8329.8023    
     53800   296.81309      544.35624      30070.215      0.99484732    -8325.4968    
     53900   303.74691      279.493        30070.215      0.99484732    -8245.6462    
     54000   309.6829       512.24633      30070.215      0.99484732    -8211.3565    
     54100   299.99245      126.46812      30070.215      0.99484732    -8245.9167    
     54200   294.21057     -349.76625      30070.215      0.99484732    -8291.5213    
     54300   296.23889     -13.521573      30070.215      0.99484732    -8303.5384    
     54400   306.01704      34.477233      30070.215      0.99484732    -8244.217     
     54500   300.11341      179.04702      30070.215      0.99484732    -8203.6054    
     54600   295.96467      248.04477      30070.215      0.99484732    -8207.2891    
     54700   301.31239     -3.3809998      30070.215      0.99484732    -8200.0934    
     54800   302.43499      253.94881      30070.215      0.99484732    -8166.4833    
     54900   313.30838     -141.82065      30070.215      0.99484732    -8153.6589    
     55000   295.83743     -244.5844       30070.215      0.99484732    -8221.3625    
     55100   299.71688      9.1990862      30070.215      0.99484732    -8252.3074    
     55200   296.43167      316.28312      30070.215      0.99484732    -8242.6028    
     55300   300.62454     -546.76458      30070.215      0.99484732    -8167.7869    
     55400   308.27648      848.11242      30070.215      0.99484732    -8117.6904    
     55500   300.93592      48.411127      30070.215      0.99484732    -8169.8081    
     55600   299.39016      307.45176      30070.215      0.99484732    -8223.9283    
     55700   299.702        497.80526      30070.215      0.99484732    -8265.572     
     55800   295.54582      488.57501      30070.215      0.99484732    -8305.0812    
     55900   297.85018      194.4952       30070.215      0.99484732    -8329.8492    
     56000   296.34661     -346.22617      30070.215      0.99484732    -8297.8386    
     56100   300.2525       78.108806      30070.215      0.99484732    -8262.4748    
     56200   302.34735     -24.510464      30070.215      0.99484732    -8273.9979    
     56300   299.72122     -307.06633      30070.215      0.99484732    -8306.9031    
     56400   292.82463      285.70044      30070.215      0.99484732    -8313.5577    
     56500   297.25931      298.22322      30070.215      0.99484732    -8262.7666    
     56600   302.92693      506.51033      30070.215      0.99484732    -8198.907     
     56700   298.93725      36.127918      30070.215      0.99484732    -8200.1327    
     56800   307.07849      630.02968      30070.215      0.99484732    -8224.4611    
     56900   300.2442       385.33293      30070.215      0.99484732    -8274.9209    
     57000   299.07337      143.86588      30070.215      0.99484732    -8280.9653    
     57100   299.08891     -79.996861      30070.215      0.99484732    -8267.4081    
     57200   295.30499     -150.71057      30070.215      0.99484732    -8235.2565    
     57300   305.97884     -347.76059      30070.215      0.99484732    -8164.582     
     57400   304.66289      54.418863      30070.215      0.99484732    -8162.5402    
     57500   302.86366     -474.89547      30070.215      0.99484732    -8224.0623    
     57600   303.51118     -223.89904      30070.215      0.99484732    -8242.3855    
     57700   294.33895      441.36512      30070.215      0.99484732    -8268.9221    
     57800   299.44883     -621.30445      30070.215      0.99484732    -8273.9392    
     57900   302.14158     -870.51111      30070.215      0.99484732    -8287.8733    
     58000   293.11466     -632.32895      30070.215      0.99484732    -8345.5671    
     58100   303.47138     -233.06361      30070.215      0.99484732    -8330.2657    
     58200   310.69896     -375.24024      30070.215      0.99484732    -8265.8716    
     58300   298.36997     -414.38226      30070.215      0.99484732    -8244.0674    
     58400   302.46548     -17.865476      30070.215      0.99484732    -8264.7893    
     58500   296.04286     -267.45763      30070.215      0.99484732    -8284.8974    
     58600   298.73908     -155.63733      30070.215      0.99484732    -8264.6937    
     58700   302.42918      109.56426      30070.215      0.99484732    -8216.1144    
     58800   302.2652       140.58964      30070.215      0.99484732    -8176.2687    
     58900   301.96063      700.08935      30070.215      0.99484732    -8209.1569    
     59000   309.41379     -330.31759      30070.215      0.99484732    -8297.4419    
     59100   298.08225      196.22196      30070.215      0.99484732    -8335.8104    
     59200   291.24025     -39.515159      30070.215      0.99484732    -8349.5671    
     59300   301.68549     -213.37095      30070.215      0.99484732    -8287.6416    
     59400   299.34431      259.37764      30070.215      0.99484732    -8243.23      
     59500   311.11274     -51.259081      30070.215      0.99484732    -8240.7116    
     59600   298.08535     -360.11178      30070.215      0.99484732    -8271.0852    
     59700   293.06368     -305.15944      30070.215      0.99484732    -8306.3755    
     59800   291.73674     -12.141701      30070.215      0.99484732    -8319.094     
     59900   298.51992     -526.76098      30070.215      0.99484732    -8312.7173    
     60000   299.06059      261.34848      30070.215      0.99484732    -8280.6152    
     60100   303.60588      692.25845      30070.215      0.99484732    -8246.1375    
     60200   289.22942      459.48386      30070.215      0.99484732    -8259.6018    
     60300   298.17085     -48.462906      30070.215      0.99484732    -8291.4671    
     60400   288.13611      751.03773      30070.215      0.99484732    -8317.3467    
     60500   295.17527      534.69592      30070.215      0.99484732    -8305.5889    
     60600   301.61051      447.17804      30070.215      0.99484732    -8238.79      
     60700   309.0667      -29.106919      30070.215      0.99484732    -8209.2187    
     60800   297.45815      135.14105      30070.215      0.99484732    -8226.9519    
     60900   293.93512     -4.9905156      30070.215      0.99484732    -8241.0161    
     61000   294.01818     -479.34913      30070.215      0.99484732    -8233.6906    
     61100   308.30935      462.76061      30070.215      0.99484732    -8179.7498    
     61200   306.01978     -79.891938      30070.215      0.99484732    -8209.4803    
     61300   298.41548     -143.81478      30070.215      0.99484732    -8274.367     
     61400   297.0194       296.53673      30070.215      0.99484732    -8278.6246    
     61500   297.75501      392.23699      30070.215      0.99484732    -8264.2919    
     61600   296.30332      95.884742      30070.215      0.99484732    -8207.4377    
     61700   308.46801      742.72863      30070.215      0.99484732    -8136.1403    
     61800   305.12516      400.43555      30070.215      0.99484732    -8185.5075    
     61900   299.77021     -448.17075      30070.215      0.99484732    -8231.137     
     62000   302.62845     -295.0393       30070.215      0.99484732    -8241.0535    
     62100   298.82765     -57.002821      30070.215      0.99484732    -8243.8278    
     62200   302.52684      348.50894      30070.215      0.99484732    -8218.0461    
     62300   314.18655      100.62426      30070.215      0.99484732    -8175.97      
     62400   301.74489     -216.85422      30070.215      0.99484732    -8190.8633    
     62500   293.66845      463.38104      30070.215      0.99484732    -8266.1785    
     62600   298.94626      1003.6988      30070.215      0.99484732    -8311.9614    
     62700   303.47981      266.76093      30070.215      0.99484732    -8346.5982    
     62800   296.44494     -87.563891      30070.215      0.99484732    -8368.0679    
     62900   302.5813       83.7042        30070.215      0.99484732    -8320.7261    
     63000   295.99137      194.9328       30070.215      0.99484732    -8302.6009    
     63100   292.51473      280.66143      30070.215      0.99484732    -8291.3128    
     63200   302.32832      147.26442      30070.215      0.99484732    -8227.5007    
     63300   305.8079      -264.4071       30070.215      0.99484732    -8199.5178    
     63400   308.21751      223.90075      30070.215      0.99484732    -8225.7799    
     63500   302.30525     -475.78092      30070.215      0.99484732    -8273.4891    
     63600   298.04643      68.380448      30070.215      0.99484732    -8275.0856    
     63700   293.11248      871.29099      30070.215      0.99484732    -8253.9187    
     63800   296.83729     -130.43587      30070.215      0.99484732    -8231.854     
     63900   303.08108      49.949229      30070.215      0.99484732    -8206.7924    
     64000   307.98446     -322.35136      30070.215      0.99484732    -8179.5816    
     64100   306.96766      266.57424      30070.215      0.99484732    -8161.0802    
     64200   296.60399     -329.64703      30070.215      0.99484732    -8213.4647    
     64300   298.62722     -58.515472      30070.215      0.99484732    -8229.5555    
     64400   300.81796     -102.13184      30070.215      0.99484732    -8232.7395    
     64500   300.39437     -378.50104      30070.215      0.99484732    -8239.1103    
     64600   301.95909     -70.860541      30070.215      0.99484732    -8220.2354    
     64700   313.82966     -609.5618       30070.215      0.99484732    -8161.9037    
     64800   299.43661     -361.90901      30070.215      0.99484732    -8173.2538    
[...]
    973100   288.98015      355.32651      30070.215      0.99484732    -8349.4798    
    973200   292.72773     -196.04482      30070.215      0.99484732    -8350.3944    
    973300   294.53464     -332.76031      30070.215      0.99484732    -8286.1794    
    973400   298.46782      27.557668      30070.215      0.99484732    -8246.3229    
    973500   294.81907      429.47185      30070.215      0.99484732    -8225.4085    
    973600   307.44471      174.93385      30070.215      0.99484732    -8218.3705    
    973700   291.49683      162.54049      30070.215      0.99484732    -8300.6373    
    973800   295.68136     -536.9699       30070.215      0.99484732    -8316.7749    
    973900   299.81838     -88.204576      30070.215      0.99484732    -8271.8701    
    974000   303.91917     -109.00016      30070.215      0.99484732    -8231.8709    
    974100   298.7358       418.65672      30070.215      0.99484732    -8241.7304    
    974200   297.06915      386.36602      30070.215      0.99484732    -8286.539     
    974300   291.87415     -118.30814      30070.215      0.99484732    -8342.5958    
    974400   295.33232     -498.80111      30070.215      0.99484732    -8341.41      
    974500   297.93854      26.160338      30070.215      0.99484732    -8308.6425    
    974600   301.65652      239.10441      30070.215      0.99484732    -8252.5483    
    974700   304.67538     -87.020677      30070.215      0.99484732    -8214.5217    
    974800   300.00823     -677.66482      30070.215      0.99484732    -8246.501     
    974900   296.67663     -108.99168      30070.215      0.99484732    -8307.0688    
    975000   301.15079      268.37011      30070.215      0.99484732    -8323.5614    
    975100   299.68593      122.72286      30070.215      0.99484732    -8306.5181    
    975200   299.60801      39.000432      30070.215      0.99484732    -8304.4087    
    975300   298.00942      172.88608      30070.215      0.99484732    -8306.4885    
    975400   302.52347      532.2337       30070.215      0.99484732    -8294.2225    
    975500   307.37169      625.45756      30070.215      0.99484732    -8268.8433    
    975600   300.81879     -3.216009       30070.215      0.99484732    -8331.3163    
    975700   296.15213     -246.90613      30070.215      0.99484732    -8371.8535    
    975800   296.5512       405.77412      30070.215      0.99484732    -8341.5674    
    975900   294.57816      743.16982      30070.215      0.99484732    -8292.9621    
    976000   299.09066     -129.24023      30070.215      0.99484732    -8261.7926    
    976100   297.92326     -7.6309648      30070.215      0.99484732    -8236.769     
    976200   305.53851      337.26062      30070.215      0.99484732    -8207.8298    
    976300   298.25101     -353.4564       30070.215      0.99484732    -8230.0443    
    976400   299.90626     -320.31965      30070.215      0.99484732    -8289.1474    
    976500   299.0925      -336.17959      30070.215      0.99484732    -8348.0639    
    976600   298.29573     -164.60605      30070.215      0.99484732    -8330.8805    
    976700   302.29607      299.42314      30070.215      0.99484732    -8289.3474    
    976800   300.40159      910.9987       30070.215      0.99484732    -8281.786     
    976900   302.98263     -207.55819      30070.215      0.99484732    -8265.424     
    977000   304.87148      172.15796      30070.215      0.99484732    -8242.0926    
    977100   307.8375      -70.157629      30070.215      0.99484732    -8237.4377    
    977200   291.51373     -282.42228      30070.215      0.99484732    -8305.0642    
    977300   303.85189     -549.63967      30070.215      0.99484732    -8326.5944    
    977400   306.80746      50.056824      30070.215      0.99484732    -8338.2341    
    977500   291.9921       382.40162      30070.215      0.99484732    -8388.4187    
    977600   296.61306     -39.168057      30070.215      0.99484732    -8391.324     
    977700   296.56434      857.93613      30070.215      0.99484732    -8306.7294    
    977800   304.33576      155.26957      30070.215      0.99484732    -8272.407     
    977900   302.86945     -343.99991      30070.215      0.99484732    -8261.7306    
    978000   297.78039     -301.83863      30070.215      0.99484732    -8265.0912    
    978100   296.81019     -152.82134      30070.215      0.99484732    -8242.688     
    978200   312.04378      628.76712      30070.215      0.99484732    -8185.9098    
    978300   307.15374     -333.78505      30070.215      0.99484732    -8222.1826    
    978400   300.94768     -438.19469      30070.215      0.99484732    -8287.9505    
    978500   290.677        102.3201       30070.215      0.99484732    -8297.2853    
    978600   306.41716     -39.773085      30070.215      0.99484732    -8256.6962    
    978700   313.19069     -274.19674      30070.215      0.99484732    -8232.4042    
    978800   297.75903      512.73472      30070.215      0.99484732    -8300.4337    
    978900   297.34277     -127.76589      30070.215      0.99484732    -8361.1418    
    979000   292.15961      461.5985       30070.215      0.99484732    -8343.6683    
    979100   289.79704     -82.483594      30070.215      0.99484732    -8308.7314    
    979200   308.63151      92.650015      30070.215      0.99484732    -8241.1642    
    979300   303.02371      451.32641      30070.215      0.99484732    -8233.9723    
    979400   295.12258      73.291545      30070.215      0.99484732    -8254.9314    
    979500   303.68358     -200.93099      30070.215      0.99484732    -8260.3683    
    979600   303.24975      29.642161      30070.215      0.99484732    -8283.9213    
    979700   296.68057     -221.81832      30070.215      0.99484732    -8337.4363    
    979800   299.2738      -253.21229      30070.215      0.99484732    -8333.9002    
    979900   306.99039     -160.17177      30070.215      0.99484732    -8285.2566    
    980000   304.33533      398.91089      30070.215      0.99484732    -8247.6809    
    980100   308.15015     -34.873865      30070.215      0.99484732    -8258.6084    
    980200   290.26687     -534.8524       30070.215      0.99484732    -8346.993     
    980300   296.0839      -72.325374      30070.215      0.99484732    -8325.3723    
    980400   297.32356     -351.32383      30070.215      0.99484732    -8278.6724    
    980500   304.9822      -43.433425      30070.215      0.99484732    -8235.6969    
    980600   300.71781     -397.07236      30070.215      0.99484732    -8235.848     
    980700   300.50144      490.02414      30070.215      0.99484732    -8256.1973    
    980800   298.91202      361.80653      30070.215      0.99484732    -8279.8565    
    980900   298.43404      65.915797      30070.215      0.99484732    -8305.1304    
    981000   299.48774      263.1698       30070.215      0.99484732    -8313.5775    
    981100   303.05579     -85.665403      30070.215      0.99484732    -8250.6571    
    981200   311.61556     -507.35298      30070.215      0.99484732    -8179.8213    
    981300   299.88162     -287.3006       30070.215      0.99484732    -8195.5894    
    981400   305.56942     -349.36768      30070.215      0.99484732    -8236.3785    
    981500   296.21115      224.05538      30070.215      0.99484732    -8295.5948    
    981600   295.36481     -508.52475      30070.215      0.99484732    -8323.326     
    981700   295.15589     -289.9286       30070.215      0.99484732    -8281.2281    
    981800   297.77065      504.63058      30070.215      0.99484732    -8210.2471    
    981900   304.8914      -22.324529      30070.215      0.99484732    -8208.9961    
    982000   296.55019     -1170.9511      30070.215      0.99484732    -8264.2578    
    982100   303.90573     -460.25226      30070.215      0.99484732    -8289.6611    
    982200   292.06711     -122.83414      30070.215      0.99484732    -8313.8063    
    982300   294.9822      -218.96197      30070.215      0.99484732    -8301.5604    
    982400   297.50413      415.7371       30070.215      0.99484732    -8220.765     
    982500   294.20775      413.73783      30070.215      0.99484732    -8207.8011    
    982600   299.66528     -140.29644      30070.215      0.99484732    -8198.7174    
    982700   306.37233     -132.54903      30070.215      0.99484732    -8185.4794    
    982800   302.71536     -126.21363      30070.215      0.99484732    -8201.3892    
    982900   300.13416     -257.43091      30070.215      0.99484732    -8237.971     
    983000   301.08295      95.500792      30070.215      0.99484732    -8259.1503    
    983100   294.86212      49.311444      30070.215      0.99484732    -8256.3997    
    983200   294.58428      269.48592      30070.215      0.99484732    -8222.1427    
    983300   310.36555      66.731904      30070.215      0.99484732    -8166.1767    
    983400   305.33677     -103.47079      30070.215      0.99484732    -8219.1368    
    983500   297.90792     -602.42785      30070.215      0.99484732    -8253.8252    
    983600   306.35035     -222.03859      30070.215      0.99484732    -8239.482     
    983700   292.32774     -408.07763      30070.215      0.99484732    -8249.51      
    983800   305.06289      347.06248      30070.215      0.99484732    -8243.8121    
    983900   304.53453      714.19728      30070.215      0.99484732    -8248.5416    
    984000   310.43935     -457.99837      30070.215      0.99484732    -8310.0303    
    984100   292.60722     -216.9839       30070.215      0.99484732    -8368.0442    
    984200   302.50673     -440.86409      30070.215      0.99484732    -8338.1135    
    984300   303.38019     -133.55783      30070.215      0.99484732    -8275.0575    
    984400   303.32602      516.53174      30070.215      0.99484732    -8236.9976    
    984500   303.14067      102.30799      30070.215      0.99484732    -8231.9398    
    984600   298.14285      316.74505      30070.215      0.99484732    -8266.6295    
    984700   294.07782      194.20427      30070.215      0.99484732    -8318.5036    
    984800   288.1209       88.924215      30070.215      0.99484732    -8401.8847    
    984900   286.61401     -410.75212      30070.215      0.99484732    -8444.2327    
    985000   295.71622      169.30494      30070.215      0.99484732    -8329.2651    
    985100   297.56331     -112.65993      30070.215      0.99484732    -8295.6918    
    985200   298.18482      831.87973      30070.215      0.99484732    -8257.0375    
    985300   309.74432      13.337462      30070.215      0.99484732    -8254.6464    
    985400   294.72239     -673.22229      30070.215      0.99484732    -8318.9003    
    985500   303.21623     -664.09761      30070.215      0.99484732    -8326.1515    
    985600   298.00289      36.612176      30070.215      0.99484732    -8278.5603    
    985700   300.71746      23.537032      30070.215      0.99484732    -8231.5785    
    985800   303.98946     -96.242087      30070.215      0.99484732    -8230.9576    
    985900   312.37455      137.05168      30070.215      0.99484732    -8250.0803    
    986000   306.03686      559.61326      30070.215      0.99484732    -8304.9668    
    986100   300.20473     -240.47568      30070.215      0.99484732    -8356.9913    
    986200   291.60805      87.565123      30070.215      0.99484732    -8340.4748    
    986300   306.99595      582.33732      30070.215      0.99484732    -8304.9541    
    986400   304.76008      525.38205      30070.215      0.99484732    -8316.7692    
    986500   296.23673      82.480583      30070.215      0.99484732    -8340.1933    
    986600   298.44303      263.31749      30070.215      0.99484732    -8333.0763    
    986700   299.14562      163.2056       30070.215      0.99484732    -8323.5922    
    986800   304.60643      70.087451      30070.215      0.99484732    -8258.8271    
    986900   303.60378      185.94284      30070.215      0.99484732    -8214.6106    
    987000   309.0201      -97.951243      30070.215      0.99484732    -8196.7636    
    987100   297.73231      248.95978      30070.215      0.99484732    -8282.4339    
    987200   290.60782      36.872053      30070.215      0.99484732    -8309.0382    
    987300   296.4642       63.350387      30070.215      0.99484732    -8249.6787    
    987400   300.97436      639.72064      30070.215      0.99484732    -8208.6718    
    987500   298.34209     -44.957575      30070.215      0.99484732    -8200.0342    
    987600   306.24595      256.43294      30070.215      0.99484732    -8160.9192    
    987700   307.69588      539.24868      30070.215      0.99484732    -8095.0529    
    987800   299.04887      86.164579      30070.215      0.99484732    -8140.0272    
    987900   306.11726     -604.86106      30070.215      0.99484732    -8169.473     
    988000   298.76795     -232.69805      30070.215      0.99484732    -8189.0179    
    988100   299.4973       537.55816      30070.215      0.99484732    -8221.5804    
    988200   295.31271      238.47395      30070.215      0.99484732    -8271.5356    
    988300   298.67868     -381.98946      30070.215      0.99484732    -8279.0989    
    988400   305.66225     -720.43036      30070.215      0.99484732    -8266.1651    
    988500   300.38179      13.985446      30070.215      0.99484732    -8264.9373    
    988600   293.10954      197.86968      30070.215      0.99484732    -8253.9868    
    988700   299.29576      217.76308      30070.215      0.99484732    -8198.0358    
    988800   304.87989      32.741136      30070.215      0.99484732    -8145.3176    
    988900   312.09533     -278.11704      30070.215      0.99484732    -8125.286     
    989000   301.50905      235.0306       30070.215      0.99484732    -8194.9335    
    989100   290.07385      184.66173      30070.215      0.99484732    -8268.5218    
    989200   306.07521     -86.922579      30070.215      0.99484732    -8234.4108    
    989300   302.01341     -146.43906      30070.215      0.99484732    -8214.5332    
    989400   298.59529      379.88398      30070.215      0.99484732    -8211.6589    
    989500   302.46114      102.75073      30070.215      0.99484732    -8198.5585    
    989600   308.64959      1215.8866      30070.215      0.99484732    -8171.2375    
    989700   304.38841     -51.503712      30070.215      0.99484732    -8205.2328    
    989800   296.92209     -378.79684      30070.215      0.99484732    -8280.732     
    989900   285.90276     -63.561979      30070.215      0.99484732    -8282.3023    
    990000   304.00172     -304.43643      30070.215      0.99484732    -8230.9234    
    990100   299.51937      370.96818      30070.215      0.99484732    -8217.931     
    990200   307.88868      188.36595      30070.215      0.99484732    -8224.8711    
    990300   306.63743     -229.24         30070.215      0.99484732    -8267.0178    
    990400   302.01719     -187.7981       30070.215      0.99484732    -8282.1772    
    990500   306.08475     -113.87717      30070.215      0.99484732    -8271.7402    
    990600   300.72786      36.194814      30070.215      0.99484732    -8276.6809    
    990700   301.6969      -268.19719      30070.215      0.99484732    -8305.6738    
    990800   297.78594      478.87482      30070.215      0.99484732    -8342.4146    
    990900   290.66737     -446.00849      30070.215      0.99484732    -8396.7681    
    991000   293.76329     -455.66228      30070.215      0.99484732    -8358.1449    
    991100   301.14099     -575.3031       30070.215      0.99484732    -8281.8102    
    991200   298.65591      50.534106      30070.215      0.99484732    -8246.4966    
    991300   302.94731     -274.42663      30070.215      0.99484732    -8229.1724    
    991400   292.36467     -273.32046      30070.215      0.99484732    -8259.2513    
    991500   296.42164     -264.88679      30070.215      0.99484732    -8310.5183    
    991600   298.47674     -488.79224      30070.215      0.99484732    -8370.8919    
    991700   292.87733     -166.41737      30070.215      0.99484732    -8353.4764    
    991800   295.61433     -203.18749      30070.215      0.99484732    -8287.9073    
    991900   296.74375      287.79899      30070.215      0.99484732    -8270.2605    
    992000   289.4469       252.89746      30070.215      0.99484732    -8275.1512    
    992100   300.95605     -474.05529      30070.215      0.99484732    -8258.791     
    992200   293.92348     -25.255103      30070.215      0.99484732    -8203.1907    
    992300   309.7135      -235.9072       30070.215      0.99484732    -8153.7209    
    992400   306.86934      164.15248      30070.215      0.99484732    -8183.0484    
    992500   301.05993     -558.78518      30070.215      0.99484732    -8233.8518    
    992600   307.99541     -124.09375      30070.215      0.99484732    -8263.6387    
    992700   295.2558      -585.67612      30070.215      0.99484732    -8297.8933    
    992800   292.09205     -974.72961      30070.215      0.99484732    -8270.2369    
    992900   297.6836       129.09818      30070.215      0.99484732    -8219.9355    
    993000   295.62634      33.361562      30070.215      0.99484732    -8225.7329    
    993100   297.34727     -125.28145      30070.215      0.99484732    -8244.5359    
    993200   296.64501     -87.024086      30070.215      0.99484732    -8266.6398    
    993300   288.41104      118.79482      30070.215      0.99484732    -8303.9999    
    993400   296.13445      367.41132      30070.215      0.99484732    -8284.7812    
    993500   292.35959      555.13594      30070.215      0.99484732    -8215.6729    
    993600   302.41266      827.76775      30070.215      0.99484732    -8178.6954    
    993700   299.96137      475.26106      30070.215      0.99484732    -8215.1603    
    993800   308.1961      -131.65483      30070.215      0.99484732    -8255.9547    
    993900   291.15464      211.57388      30070.215      0.99484732    -8263.8603    
    994000   301.76269      138.39568      30070.215      0.99484732    -8236.83      
    994100   299.2393       725.83467      30070.215      0.99484732    -8226.2       
    994200   301.43873     -33.152423      30070.215      0.99484732    -8318.4973    
    994300   286.74093      161.52443      30070.215      0.99484732    -8335.9707    
    994400   300.29248      684.53508      30070.215      0.99484732    -8292.1993    
    994500   298.38784     -58.104799      30070.215      0.99484732    -8278.2799    
    994600   300.47349     -95.795123      30070.215      0.99484732    -8270.7292    
    994700   301.18195     -134.9484       30070.215      0.99484732    -8200.8315    
    994800   301.09874     -200.52903      30070.215      0.99484732    -8154.8579    
    994900   302.77349      5.27944        30070.215      0.99484732    -8164.2031    
    995000   298.07435      14.855866      30070.215      0.99484732    -8216.8217    
    995100   293.53543     -618.21389      30070.215      0.99484732    -8287.4813    
    995200   296.52481      274.61771      30070.215      0.99484732    -8282.6266    
    995300   298.8486       246.05803      30070.215      0.99484732    -8250.2166    
    995400   301.97921      313.83861      30070.215      0.99484732    -8230.0723    
    995500   297.22324     -6.7195968      30070.215      0.99484732    -8248.3086    
    995600   299.41942     -181.2134       30070.215      0.99484732    -8277.2883    
    995700   297.35809     -173.81485      30070.215      0.99484732    -8291.8654    
    995800   297.21899      461.97339      30070.215      0.99484732    -8300.5665    
    995900   297.68844      196.80002      30070.215      0.99484732    -8279.5507    
    996000   307.13822     -236.45585      30070.215      0.9