LAMMPS (29 Aug 2024 - Update 2)
  using 8 OpenMP thread(s) per MPI task
Created orthogonal box = (0 0 0) to (40 40 40)
  2 by 2 by 2 MPI processor grid
Created 1000 atoms
  using lattice units in orthogonal box = (0 0 0) to (40 40 40)
  create_atoms CPU = 0.017 seconds
Stage-1 minimize: soft LJ only
Generated 0 of 0 mixed pair_coeff terms from geometric mixing rule
Neighbor list info ...
  update: every = 1 steps, delay = 0 steps, check = yes
  max neighbors/atom: 2000, page size: 100000
  master list distance cutoff = 2.8
  ghost atom cutoff = 2.8
  binsize = 1.4, bins = 29 29 29
  1 neighbor lists, perpetual/occasional/extra = 1 0 0
  (1) pair lj/cut, perpetual
      attributes: half, newton on
      pair build: half/bin/atomonly/newton
      stencil: half/bin/3d
      bin: standard
Setting up cg style minimization ...
  Unit style    : real
  Current step  : 0
Per MPI rank memory allocation (min/avg/max) = 10.38 | 10.38 | 10.38 Mbytes
   Step          Temp          E_pair         E_mol          TotEng         Press     
         0   0              0              0              0              0            
         1   0              0              0              0              0            
Loop time of 4.13071e-05 on 64 procs for 1 steps with 1000 atoms

43.3% CPU use with 8 MPI tasks x 8 OpenMP threads

Minimization stats:
  Stopping criterion = search direction is not downhill
  Energy initial, next-to-last, final = 
                     0                  0                  0
  Force two-norm initial, final = 0 0
  Force max component initial, final = 0 0
  Final line search alpha, max atom move = 0 0
  Iterations, force evaluations = 1 0

MPI task timing breakdown:
Section |  min time  |  avg time  |  max time  |%varavg| %total
---------------------------------------------------------------
Pair    | 1.102e-06  | 1.6745e-06 | 2.805e-06  |   0.0 |  4.05
Neigh   | 0          | 0          | 0          |   0.0 |  0.00
Comm    | 1.0109e-05 | 1.1561e-05 | 1.3225e-05 |   0.0 | 27.99
Output  | 0          | 0          | 0          |   0.0 |  0.00
Modify  | 0          | 0          | 0          |   0.0 |  0.00
Other   |            | 2.807e-05  |            |       | 67.96

Nlocal:            125 ave         140 max         111 min
Histogram: 1 0 1 2 0 1 1 1 0 1
Nghost:         136.25 ave         143 max         125 min
Histogram: 1 0 0 0 0 2 2 0 2 1
Neighs:         85.875 ave         109 max          69 min
Histogram: 2 0 1 1 1 1 0 0 1 1

Total # of neighbors = 687
Ave neighs/atom = 0.687
Neighbor list builds = 0
Dangerous builds = 0
Stage-2 minimize: hybrid/overlay LJ + table
WARNING: 4 of 1000 force values in table CG_WATER are inconsistent with -dE/dr.
WARNING:  Should only be flagged at inflection points (src/pair_table.cpp:466)
Stage-2 minimize: full LJ + CG table
Generated 0 of 0 mixed pair_coeff terms from geometric mixing rule
Neighbor list info ...
  update: every = 1 steps, delay = 0 steps, check = yes
  max neighbors/atom: 2000, page size: 100000
  master list distance cutoff = 12
  ghost atom cutoff = 12
  binsize = 6, bins = 7 7 7
  2 neighbor lists, perpetual/occasional/extra = 2 0 0
  (1) pair lj/cut, perpetual
      attributes: half, newton on
      pair build: half/bin/atomonly/newton
      stencil: half/bin/3d
      bin: standard
  (2) pair table, perpetual
      attributes: half, newton on, cut 12
      pair build: half/bin/atomonly/newton
      stencil: half/bin/3d
      bin: standard
Setting up cg style minimization ...
  Unit style    : real
  Current step  : 1
Per MPI rank memory allocation (min/avg/max) = 13.72 | 13.72 | 13.72 Mbytes
   Step          Temp          E_pair         E_mol          TotEng         Press     
         1   0             -31.112652      0             -31.112652     -46.366474    
       221   0             -292.49213      0             -292.49213     -127.46348    
Loop time of 0.175197 on 64 procs for 220 steps with 1000 atoms

93.7% CPU use with 8 MPI tasks x 8 OpenMP threads

Minimization stats:
  Stopping criterion = energy tolerance
  Energy initial, next-to-last, final = 
     -31.1126519376695  -292.491968109108  -292.492131759647
  Force two-norm initial, final = 20.725125 29.768074
  Force max component initial, final = 1.918908 16.341613
  Final line search alpha, max atom move = 3.1197496e-05 0.0005098174
  Iterations, force evaluations = 220 861

MPI task timing breakdown:
Section |  min time  |  avg time  |  max time  |%varavg| %total
---------------------------------------------------------------
Pair    | 0.070391   | 0.086376   | 0.13367    |   6.7 | 49.30
Neigh   | 0.00032205 | 0.00036378 | 0.0004693  |   0.0 |  0.21
Comm    | 0.033715   | 0.079555   | 0.09631    |   6.9 | 45.41
Output  | 0          | 0          | 0          |   0.0 |  0.00
Modify  | 0          | 0          | 0          |   0.0 |  0.00
Other   |            | 0.008903   |            |       |  5.08

Nlocal:            125 ave         139 max         113 min
Histogram: 1 0 2 2 0 0 1 0 1 1
Nghost:        1212.75 ave        1238 max        1182 min
Histogram: 1 1 0 1 1 0 1 0 0 3
Neighs:         7047.5 ave        8131 max        6319 min
Histogram: 3 1 0 1 0 0 1 0 0 2

Total # of neighbors = 56380
Ave neighs/atom = 56.38
Neighbor list builds = 1
Dangerous builds = 0
Equilibration Stage-1: 1 fs, strong damping
Generated 0 of 0 mixed pair_coeff terms from geometric mixing rule
Setting up Verlet run ...
  Unit style    : real
  Current step  : 221
  Time step     : 1
Per MPI rank memory allocation (min/avg/max) = 12.59 | 12.59 | 12.59 Mbytes
   Step          Temp          E_pair         E_mol          TotEng         Press     
       221   300           -292.49213      0              600.85664      510.61474    
     50221   313.59838     -82.515932      0              851.32649      616.72931    
Loop time of 6.0193 on 64 procs for 50000 steps with 1000 atoms

Performance: 717.691 ns/day, 0.033 hours/ns, 8306.611 timesteps/s, 8.307 Matom-step/s
91.0% CPU use with 8 MPI tasks x 8 OpenMP threads

MPI task timing breakdown:
Section |  min time  |  avg time  |  max time  |%varavg| %total
---------------------------------------------------------------
Pair    | 2.4814     | 2.9879     | 3.369      |  16.7 | 49.64
Neigh   | 0.048405   | 0.05364    | 0.058205   |   1.3 |  0.89
Comm    | 2.0345     | 2.4402     | 2.9745     |  19.1 | 40.54
Output  | 2.9987e-05 | 3.2343e-05 | 4.3142e-05 |   0.0 |  0.00
Modify  | 0.28822    | 0.31168    | 0.32991    |   2.6 |  5.18
Other   |            | 0.2258     |            |       |  3.75

Nlocal:            125 ave         137 max         115 min
Histogram: 1 0 2 1 0 2 1 0 0 1
Nghost:           1211 ave        1238 max        1190 min
Histogram: 2 0 1 1 0 2 0 1 0 1
Neighs:        7094.12 ave        7811 max        6192 min
Histogram: 1 1 1 0 1 0 0 0 2 2

Total # of neighbors = 56753
Ave neighs/atom = 56.753
Neighbor list builds = 156
Dangerous builds = 0
Equilibration Stage-2: 2 fs, normal damping
Generated 0 of 0 mixed pair_coeff terms from geometric mixing rule
Setting up Verlet run ...
  Unit style    : real
  Current step  : 50221
  Time step     : 2
Per MPI rank memory allocation (min/avg/max) = 12.59 | 12.59 | 12.59 Mbytes
   Step          Temp          E_pair         E_mol          TotEng         Press     
     50221   313.59838     -82.515932      0              851.32649      616.72931    
    100221   286.59963     -136.03977      0              717.40498      547.85117    
Loop time of 6.86825 on 64 procs for 50000 steps with 1000 atoms

Performance: 1257.962 ns/day, 0.019 hours/ns, 7279.874 timesteps/s, 7.280 Matom-step/s
90.9% CPU use with 8 MPI tasks x 8 OpenMP threads

MPI task timing breakdown:
Section |  min time  |  avg time  |  max time  |%varavg| %total
---------------------------------------------------------------
Pair    | 2.5425     | 3.2063     | 3.6432     |  19.8 | 46.68
Neigh   | 0.28639    | 0.33553    | 0.36806    |   4.0 |  4.89
Comm    | 2.3115     | 2.7848     | 3.4857     |  22.3 | 40.55
Output  | 1.8886e-05 | 2.2523e-05 | 3.0859e-05 |   0.0 |  0.00
Modify  | 0.28642    | 0.3131     | 0.33797    |   2.9 |  4.56
Other   |            | 0.2285     |            |       |  3.33

Nlocal:            125 ave         159 max         105 min
Histogram: 2 0 1 1 3 0 0 0 0 1
Nghost:        1219.88 ave        1249 max        1166 min
Histogram: 1 0 0 0 2 0 0 2 2 1
Neighs:        7155.75 ave       10312 max        5396 min
Histogram: 2 0 0 4 0 1 0 0 0 1

Total # of neighbors = 57246
Ave neighs/atom = 57.246
Neighbor list builds = 1038
Dangerous builds = 0
Production Run: 2 fs, 300 K Langevin
Generated 0 of 0 mixed pair_coeff terms from geometric mixing rule
Setting up Verlet run ...
  Unit style    : real
  Current step  : 0
  Time step     : 2
Per MPI rank memory allocation (min/avg/max) = 12.59 | 12.59 | 12.59 Mbytes
   Step          Temp          Press          Volume        Density         TotEng         PotEng         KinEng    
         0   286.59963      547.85117      64000          0.46742303     717.40498     -136.03977      853.44475    
       100   296.71974      527.33684      64000          0.46742303     760.83138     -122.74933      883.58071    
       200   304.28837      562.89654      64000          0.46742303     774.09453     -132.02427      906.11881    
       300   290.85972      621.23015      64000          0.46742303     739.97978     -126.15078      866.13057    
       400   294.62384      549.08661      64000          0.46742303     759.72325     -117.61623      877.33948    
       500   303.75191      599.60417      64000          0.46742303     789.05611     -115.46521      904.52132    
       600   308.3579       579.81455      64000          0.46742303     801.02707     -117.2101       918.23716    
       700   313.09491      595.91105      64000          0.46742303     801.79799     -130.5452       932.34319    
       800   311.11371      567.67802      64000          0.46742303     810.67013     -115.77337      926.44351    
       900   293.71119      552.42113      64000          0.46742303     745.48485     -129.13693      874.62178    
      1000   291.83578      583.59194      64000          0.46742303     761.07096     -107.96616      869.03712    
      1100   307.26076      605.12704      64000          0.46742303     796.87627     -118.09381      914.97009    
      1200   296.73738      552.53854      64000          0.46742303     758.69162     -124.94162      883.63324    
      1300   299.5563       574.1721       64000          0.46742303     775.35513     -116.67237      892.0275     
      1400   299.35172      595.84336      64000          0.46742303     787.22556     -104.19275      891.41831    
      1500   293.98853      593.37811      64000          0.46742303     762.64724     -112.80042      875.44766    
      1600   284.89892      529.57384      64000          0.46742303     732.01111     -116.36922      848.38033    
      1700   299.57617      585.5667       64000          0.46742303     780.36619     -111.72048      892.08668    
      1800   293.85115      565.75685      64000          0.46742303     768.64434     -106.39421      875.03856    
      1900   300.3645       585.4453       64000          0.46742303     803.67927     -90.754917      894.43419    
      2000   301.17024      516.10361      64000          0.46742303     797.6039      -99.229644      896.83355    
      2100   305.52645      605.77322      64000          0.46742303     802.75767     -107.04792      909.80559    
      2200   291.27705      546.00764      64000          0.46742303     757.05916     -110.31417      867.37333    
      2300   307.77179      532.52802      64000          0.46742303     816.09856     -100.39328      916.49183    
      2400   303.21697      544.72369      64000          0.46742303     792.69662     -110.23174      902.92836    
      2500   326.9867       655.13141      64000          0.46742303     870.45843     -103.25212      973.71056    
      2600   295.41773      544.84083      64000          0.46742303     783.32326     -96.380292      879.70355    
      2700   294.80481      595.67863      64000          0.46742303     770.44979     -107.42861      877.8784     
      2800   302.91587      627.45873      64000          0.46742303     806.33105     -95.700701      902.03175    
      2900   303.05407      595.94733      64000          0.46742303     810.23141     -92.211858      902.44326    
      3000   314.11741      608.57755      64000          0.46742303     848.00607     -87.381939      935.38801    
      3100   309.6491       641.43286      64000          0.46742303     828.28019     -93.801956      922.08215    
      3200   302.66073      609.86351      64000          0.46742303     811.39042     -89.881557      901.27197    
      3300   303.71433      591.73016      64000          0.46742303     804.94101     -99.4684        904.40941    
      3400   304.89486      589.83076      64000          0.46742303     814.79858     -93.126255      907.92483    
      3500   302.55835      583.88409      64000          0.46742303     806.04101     -94.926101      900.96711    
      3600   308.32639      619.01723      64000          0.46742303     831.44218     -86.701155      918.14333    
      3700   288.47318      598.10428      64000          0.46742303     766.02656     -92.997323      859.02388    
      3800   293.66827      564.853        64000          0.46742303     783.81762     -90.676349      874.49397    
      3900   295.88287      552.56517      64000          0.46742303     799.75512     -81.33354       881.08866    
      4000   293.05556      567.08586      64000          0.46742303     787.11129     -85.558136      872.66942    
      4100   296.6794       629.13737      64000          0.46742303     805.92364     -77.536958      883.4606     
      4200   301.71778      601.56513      64000          0.46742303     815.59415     -82.869872      898.46402    
      4300   304.61281      576.71042      64000          0.46742303     823.05855     -84.026382      907.08493    
      4400   295.72974      582.31329      64000          0.46742303     813.2095      -67.423158      880.63266    
      4500   294.60895      567.57742      64000          0.46742303     799.41818     -77.876979      877.29516    
      4600   298.61605      585.22152      64000          0.46742303     800.25738     -88.970217      889.2276     
      4700   311.43348      610.80928      64000          0.46742303     835.26213     -92.133603      927.39573    
      4800   293.00494      551.11481      64000          0.46742303     773.71806     -98.800608      872.51867    
      4900   299.25345      600.84887      64000          0.46742303     794.16369     -96.961991      891.12568    
      5000   301.30579      591.46067      64000          0.46742303     780.63316     -116.60402      897.23719    
      5100   291.493        543.38025      64000          0.46742303     787.6948      -80.321596      868.01639    
      5200   294.66437      570.91937      64000          0.46742303     788.85756     -88.602617      877.46017    
      5300   306.93902      617.94617      64000          0.46742303     828.55946     -85.452514      914.01197    
      5400   293.51838      561.35888      64000          0.46742303     786.9356      -87.112016      874.04761    
      5500   290.59768      537.81233      64000          0.46742303     767.86942     -97.480833      865.35026    
      5600   294.98344      586.8482       64000          0.46742303     785.2148      -93.195515      878.41032    
      5700   310.38506      613.77916      64000          0.46742303     832.94829     -91.32541       924.2737     
      5800   296.46402      537.96504      64000          0.46742303     793.75409     -89.065132      882.81922    
      5900   301.9871       593.82883      64000          0.46742303     799.4815      -99.784517      899.26602    
      6000   312.73482      630.05073      64000          0.46742303     827.62071     -103.65018      931.27088    
      6100   303.66317      623.63889      64000          0.46742303     808.95414     -95.302931      904.25707    
      6200   310.71396      598.588        64000          0.46742303     835.03546     -90.21764       925.2531     
      6300   303.56673      558.81973      64000          0.46742303     810.38144     -93.588452      903.96989    
      6400   310.17817      595.44904      64000          0.46742303     831.38286     -92.274773      923.65763    
      6500   296.26332      556.47543      64000          0.46742303     788.77362     -93.447953      882.22157    
      6600   311.76908      615.7188       64000          0.46742303     838.6067      -89.788373      928.39507    
      6700   282.42193      533.10144      64000          0.46742303     749.79642     -91.20786       841.00428    
      6800   312.20091      591.73281      64000          0.46742303     829.31064     -100.37037      929.68101    
      6900   304.5654       596.5338       64000          0.46742303     824.86188     -82.081884      906.94377    
      7000   306.17012      603.52195      64000          0.46742303     818.80302     -92.91933       911.72235    
      7100   292.24974      574.18617      64000          0.46742303     782.33836     -87.931459      870.26982    
      7200   305.96791      599.85163      64000          0.46742303     821.37237     -89.747825      911.12019    
      7300   300.20889      599.4162       64000          0.46742303     805.34113     -88.629677      893.97081    
      7400   311.70672      606.12112      64000          0.46742303     829.25171     -98.957659      928.20937    
      7500   302.13019      585.77341      64000          0.46742303     795.92307     -103.76903      899.6921     
      7600   289.69806      569.16156      64000          0.46742303     753.93524     -108.73611      862.67135    
      7700   295.38369      569.85145      64000          0.46742303     775.92029     -103.68191      879.6022     
      7800   295.27615      573.02361      64000          0.46742303     778.57853     -100.70343      879.28197    
      7900   305.43188      583.08005      64000          0.46742303     807.88808     -101.6359       909.52398    
      8000   313.46272      586.89961      64000          0.46742303     837.32101     -96.117431      933.43844    
      8100   301.5815       582.71824      64000          0.46742303     799.80534     -98.252864      898.0582     
      8200   291.99261      521.01591      64000          0.46742303     773.74384     -95.760287      869.50412    
      8300   299.44252      561.45641      64000          0.46742303     803.69106     -87.997639      891.6887     
      8400   292.47708      545.89875      64000          0.46742303     775.78935     -95.157449      870.9468     
      8500   285.06992      553.25121      64000          0.46742303     749.00808     -99.881456      848.88954    
      8600   301.15928      585.17033      64000          0.46742303     796.48878     -100.31214      896.80092    
      8700   293.45483      563.11748      64000          0.46742303     773.62056     -100.23782      873.85838    
      8800   292.79419      558.51903      64000          0.46742303     766.42197     -105.46912      871.89109    
      8900   303.75713      572.27275      64000          0.46742303     789.55695     -114.97992      904.53687    
      9000   294.21666      576.77671      64000          0.46742303     765.75102     -110.37596      876.12698    
      9100   303.08509      581.43878      64000          0.46742303     793.43976     -109.09588      902.53564    
      9200   297.86296      588.00689      64000          0.46742303     785.58646     -101.39858      886.98505    
      9300   311.85089      604.00328      64000          0.46742303     831.6239      -97.014786      928.63869    
      9400   295.12774      589.94376      64000          0.46742303     786.44997     -92.39005       878.84002    
      9500   303.21569      589.63986      64000          0.46742303     820.71704     -82.207502      902.92455    
      9600   300.90216      574.88882      64000          0.46742303     786.0686      -109.96665      896.03524    
      9700   300.87238      594.4914       64000          0.46742303     799.77469     -96.171892      895.94658    
      9800   291.02389      558.35864      64000          0.46742303     764.97877     -101.64068      866.61946    
      9900   306.87421      595.01853      64000          0.46742303     823.88984     -89.929154      913.819      
     10000   298.44554      562.47736      64000          0.46742303     800.70481     -88.015039      888.71985    
     10100   309.61006      599.01754      64000          0.46742303     815.44853     -106.51735      921.96588    
     10200   293.43826      568.26009      64000          0.46742303     775.57987     -98.229166      873.80903    
     10300   301.52736      564.95532      64000          0.46742303     796.31789     -101.57909      897.89698    
     10400   288.20406      597.23597      64000          0.46742303     755.80218     -102.42029      858.22246    
     10500   287.28518      573.4399       64000          0.46742303     743.96162     -111.52457      855.48619    
     10600   290.87952      580.90817      64000          0.46742303     758.73983     -107.4497       866.18953    
     10700   301.51911      562.60438      64000          0.46742303     791.51948     -106.35295      897.87243    
     10800   307.16421      606.0889       64000          0.46742303     810.87604     -103.80654      914.68258    
     10900   295.63248      551.52701      64000          0.46742303     790.13316     -90.209877      880.34304    
     11000   301.9294       598.51218      64000          0.46742303     798.0209      -101.0733       899.0942     
     11100   296.52882      552.17424      64000          0.46742303     777.20288     -105.80931      883.01219    
     11200   299.51068      524.29831      64000          0.46742303     791.18775     -100.7039       891.89165    
     11300   293.84249      567.54319      64000          0.46742303     779.48986     -95.522896      875.01275    
     11400   293.26971      567.63669      64000          0.46742303     765.52945     -107.77766      873.30711    
     11500   303.9749       588.7606       64000          0.46742303     786.61533     -118.57002      905.18535    
     11600   302.98324      591.76577      64000          0.46742303     788.85627     -113.37608      902.23235    
     11700   287.90432      527.85378      64000          0.46742303     746.0272      -111.30271      857.32991    
     11800   292.45212      564.80135      64000          0.46742303     767.50371     -103.36876      870.87246    
     11900   298.45088      573.68435      64000          0.46742303     795.27442     -93.461347      888.73577    
     12000   310.46536      603.32907      64000          0.46742303     839.86774     -84.64508       924.51282    
     12100   299.8538       611.05603      64000          0.46742303     814.53873     -78.374684      892.91341    
     12200   304.48322      588.65705      64000          0.46742303     817.99376     -88.705285      906.69905    
     12300   293.60795      544.44528      64000          0.46742303     784.13809     -90.176255      874.31434    
     12400   304.7888       566.32127      64000          0.46742303     811.50249     -96.106501      907.60899    
     12500   297.99559      580.6498       64000          0.46742303     778.45698     -108.923        887.37998    
     12600   298.03803      577.15579      64000          0.46742303     793.90778     -93.598584      887.50637    
     12700   309.37332      583.44297      64000          0.46742303     826.42641     -94.834522      921.26093    
     12800   308.6385       575.21707      64000          0.46742303     819.34745     -99.725302      919.07275    
     12900   308.7811       608.50806      64000          0.46742303     808.19594     -111.30145      919.49739    
     13000   295.03576      601.71854      64000          0.46742303     777.10815     -101.45796      878.5661     
     13100   305.37306      579.92105      64000          0.46742303     804.34168     -105.00716      909.34884    
     13200   307.75174      594.76817      64000          0.46742303     813.23067     -103.20147      916.43214    
     13300   307.8129       617.09708      64000          0.46742303     819.2933      -97.32097       916.61427    
     13400   302.31602      579.36495      64000          0.46742303     801.45356     -98.791911      900.24548    
     13500   295.0337       561.25535      64000          0.46742303     776.43262     -102.12736      878.55998    
     13600   293.64283      510.19115      64000          0.46742303     776.26226     -98.15595       874.41821    
     13700   302.41575      591.32077      64000          0.46742303     804.02052     -96.521948      900.54247    
     13800   292.57735      515.77242      64000          0.46742303     773.1985      -98.046894      871.24539    
     13900   290.03276      550.66601      64000          0.46742303     756.09878     -107.56925      863.66803    
     14000   297.64635      581.22932      64000          0.46742303     775.98332     -110.35669      886.34001    
     14100   289.34051      560.93874      64000          0.46742303     760.59999     -101.00665      861.60664    
     14200   292.72543      530.04738      64000          0.46742303     769.48456     -102.20179      871.68636    
     14300   300.84875      596.86435      64000          0.46742303     797.48735     -98.388865      895.87622    
     14400   289.99861      552.08904      64000          0.46742303     765.71119     -97.855145      863.56634    
     14500   305.60949      596.35217      64000          0.46742303     816.04924     -94.003627      910.05287    
     14600   315.0906       582.33271      64000          0.46742303     841.22407     -97.061939      938.28601    
     14700   291.45146      530.71447      64000          0.46742303     782.2122      -85.680474      867.89268    
     14800   291.15577      557.62178      64000          0.46742303     781.36841     -85.643769      867.01218    
     14900   287.61797      583.96719      64000          0.46742303     764.46341     -92.013792      856.47721    
     15000   290.3049       532.28755      64000          0.46742303     771.46448     -93.013949      864.47843    
     15100   289.67042      513.13183      64000          0.46742303     771.3606      -91.228452      862.58906    
     15200   304.09887      583.36739      64000          0.46742303     813.99706     -91.557446      905.5545     
     15300   300.83708      529.64355      64000          0.46742303     792.87818     -102.96328      895.84146    
     15400   294.30437      547.71476      64000          0.46742303     790.01686     -86.371289      876.38815    
     15500   300.59631      610.67264      64000          0.46742303     822.98079     -72.143673      895.12447    
     15600   300.91517      585.71709      64000          0.46742303     827.51503     -68.558962      896.07399    
     15700   297.62517      585.83241      64000          0.46742303     809.09325     -77.183683      886.27693    
     15800   297.93054      546.27272      64000          0.46742303     803.62303     -83.563241      887.18627    
     15900   293.55884      554.08994      64000          0.46742303     794.164       -80.004109      874.16811    
     16000   298.65382      574.73249      64000          0.46742303     811.76052     -77.579568      889.34009    
     16100   306.28391      584.29402      64000          0.46742303     828.92472     -83.136455      912.06118    
     16200   301.23768      575.09824      64000          0.46742303     808.94712     -88.08725       897.03437    
     16300   307.27967      592.39786      64000          0.46742303     826.64878     -88.377616      915.0264     
     16400   307.90884      585.96982      64000          0.46742303     822.03403     -94.865927      916.89995    
     16500   303.94477      584.88362      64000          0.46742303     815.25536     -89.84027       905.09563    
     16600   303.29344      626.7935       64000          0.46742303     819.82706     -83.328998      903.15606    
     16700   294.25473      606.58162      64000          0.46742303     789.60971     -86.63064       876.24035    
     16800   288.45312      521.23891      64000          0.46742303     762.20934     -96.754787      858.96413    
     16900   292.38966      574.99722      64000          0.46742303     768.98042     -101.70606      870.68648    
     17000   316.33701      584.09858      64000          0.46742303     847.04528     -94.95231       941.99759    
     17100   296.93242      579.30287      64000          0.46742303     793.91772     -90.296309      884.21403    
     17200   299.52133      582.16875      64000          0.46742303     797.56811     -94.355272      891.92339    
     17300   290.73292      553.89678      64000          0.46742303     753.81555     -111.93742      865.75298    
     17400   286.85783      516.2887       64000          0.46742303     741.51411     -112.69952      854.21364    
     17500   299.20421      578.76611      64000          0.46742303     796.2532      -94.725856      890.97905    
     17600   294.28638      528.17169      64000          0.46742303     784.08421     -92.250394      876.3346     
     17700   289.40893      525.36208      64000          0.46742303     763.84663     -97.963735      861.81036    
     17800   288.66509      529.68096      64000          0.46742303     760.35853     -99.236817      859.59535    
     17900   296.70625      618.28416      64000          0.46742303     786.21326     -97.327278      883.54054    
     18000   287.41916      507.04236      64000          0.46742303     764.72638     -91.158785      855.88517    
     18100   294.9156       564.23013      64000          0.46742303     792.88185     -85.326436      878.20829    
     18200   281.74136      554.29801      64000          0.46742303     757.4426      -81.535068      838.97767    
     18300   300.01064      570.71471      64000          0.46742303     808.63422     -84.746225      893.38044    
     18400   319.71194      610.42387      64000          0.46742303     864.54043     -87.507136      952.04757    
     18500   290.26483      507.24397      64000          0.46742303     772.72546     -91.633648      864.35911    
     18600   286.53419      543.98456      64000          0.46742303     758.894       -94.355902      853.2499     
     18700   297.594        567.27957      64000          0.46742303     784.34422     -101.83991      886.18413    
     18800   294.23872      582.26246      64000          0.46742303     773.12152     -103.07116      876.19267    
     18900   299.58829      538.55816      64000          0.46742303     797.66706     -94.455702      892.12276    
     19000   285.82761      494.59251      64000          0.46742303     762.19251     -88.953295      851.1458     
     19100   314.37712      654.31493      64000          0.46742303     842.39756     -93.763826      936.16138    
     19200   301.51427      569.754        64000          0.46742303     813.06937     -84.788627      897.858      
     19300   296.62794      587.68673      64000          0.46742303     799.84644     -83.460924      883.30737    
     19400   303.17635      588.44189      64000          0.46742303     815.75239     -87.05501       902.8074     
     19500   294.10112      562.98079      64000          0.46742303     783.61953     -92.163389      875.78292    
     19600   283.84376      536.49698      64000          0.46742303     762.04686     -83.191406      845.23826    
     19700   311.92391      607.21359      64000          0.46742303     835.06759     -93.788542      928.85613    
     19800   301.89161      569.28619      64000          0.46742303     806.67295     -92.308704      898.98165    
     19900   294.56957      551.8249       64000          0.46742303     779.74817     -97.429715      877.17789    
     20000   294.146        586.54032      64000          0.46742303     780.43534     -95.481225      875.91656    
     20100   307.02621      609.88267      64000          0.46742303     819.52083     -94.750793      914.27163    
     20200   282.43947      559.48798      64000          0.46742303     749.47007     -91.586433      841.05651    
     20300   301.99716      596.08364      64000          0.46742303     812.06094     -87.235023      899.29597    
     20400   302.95929      611.50918      64000          0.46742303     806.1389      -96.022115      902.16102    
     20500   298.9321       597.04199      64000          0.46742303     795.47259     -94.696154      890.16874    
     20600   321.9963       610.60707      64000          0.46742303     879.7337      -79.1163        958.85       
     20700   303.04321      589.60312      64000          0.46742303     817.98521     -84.425716      902.41093    
     20800   297.83971      550.8006       64000          0.46742303     798.86524     -88.050555      886.9158     
     20900   300.92175      575.40297      64000          0.46742303     811.66527     -84.428327      896.0936     
     21000   303.15057      559.8002       64000          0.46742303     820.3779      -82.352723      902.73062    
     21100   282.5032       524.76749      64000          0.46742303     761.41486     -79.831415      841.24628    
     21200   297.70394      580.58431      64000          0.46742303     795.1659      -91.345596      886.5115     
     21300   291.21539      576.69551      64000          0.46742303     782.1633      -85.026391      867.18969    
     21400   301.33587      571.39712      64000          0.46742303     814.69459     -82.632183      897.32678    
     21500   294.06767      593.05601      64000          0.46742303     777.92062     -97.762688      875.68331    
     21600   300.3886       594.71225      64000          0.46742303     797.30791     -97.198044      894.50595    
     21700   301.24377      558.22236      64000          0.46742303     802.67291     -94.379608      897.05252    
     21800   303.07082      580.49079      64000          0.46742303     819.46451     -83.028647      902.49315    
     21900   289.89487      576.3818       64000          0.46742303     780.76982     -82.487617      863.25743    
     22000   296.34694      629.88395      64000          0.46742303     803.85503     -78.615569      882.4706     
     22100   292.94363      532.51394      64000          0.46742303     779.15062     -93.185487      872.33611    
     22200   299.49717      566.06782      64000          0.46742303     791.28647     -100.56495      891.85143    
     22300   304.85353      578.81513      64000          0.46742303     804.43374     -103.36801      907.80175    
     22400   298.60174      563.73008      64000          0.46742303     787.13297     -102.05202      889.18499    
     22500   303.72804      628.1429       64000          0.46742303     812.66676     -91.783485      904.45025    
     22600   312.98038      596.8053       64000          0.46742303     839.25744     -92.744685      932.00212    
     22700   308.40018      567.03293      64000          0.46742303     817.84003     -100.52305      918.36308    
     22800   303.54522      548.78516      64000          0.46742303     802.44074     -101.46509      903.90582    
     22900   296.14402      562.8122       64000          0.46742303     786.01695     -95.849381      881.86633    
     23000   286.29551      536.32809      64000          0.46742303     747.85678     -104.68237      852.53915    
     23100   303.14839      569.64298      64000          0.46742303     796.40431     -106.31983      902.72414    
     23200   295.92924      567.59753      64000          0.46742303     787.75964     -93.467095      881.22674    
     23300   298.0045       567.59672      64000          0.46742303     799.98585     -87.420664      887.40652    
     23400   305.51521      599.31156      64000          0.46742303     817.22538     -92.546754      909.77214    
     23500   300.49592      555.31627      64000          0.46742303     805.17792     -89.647614      894.82553    
     23600   312.15053      605.30813      64000          0.46742303     837.6408      -91.890174      929.53098    
     23700   291.30597      559.99167      64000          0.46742303     785.3263      -82.133139      867.45943    
     23800   320.39306      653.49483      64000          0.46742303     867.25833     -86.817491      954.07582    
     23900   295.56402      564.24984      64000          0.46742303     784.51899     -95.620193      880.13919    
     24000   300.72079      584.72362      64000          0.46742303     799.20036     -96.29481       895.49517    
     24100   300.84937      606.7138       64000          0.46742303     792.98915     -102.88891      895.87806    
     24200   292.83228      546.31908      64000          0.46742303     768.19836     -103.80618      872.00454    
     24300   305.21364      597.73875      64000          0.46742303     808.38789     -100.48622      908.87411    
     24400   294.79167      533.68302      64000          0.46742303     782.27321     -95.566054      877.83926    
     24500   287.7072       535.30632      64000          0.46742303     765.23491     -91.507996      856.74291    
     24600   300.81375      579.32269      64000          0.46742303     803.47553     -92.296456      895.77198    
     24700   299.53551      552.32333      64000          0.46742303     786.03178     -105.93381      891.96559    
     24800   281.78358      516.00397      64000          0.46742303     738.58518     -100.51819      839.10337    
     24900   310.9619       599.26289      64000          0.46742303     813.49772     -112.49371      925.99143    
     25000   290.06786      565.88651      64000          0.46742303     759.87823     -103.89433      863.77255    
     25100   300.28292      600.73851      64000          0.46742303     804.25869     -89.932567      894.19126    
     25200   303.8474       600.43035      64000          0.46742303     814.97014     -89.835526      904.80567    
     25300   304.08389      592.38293      64000          0.46742303     826.99409     -78.515819      905.50991    
     25400   307.00238      621.84505      64000          0.46742303     829.53873     -84.661948      914.20067    
     25500   307.91074      582.16854      64000          0.46742303     833.60117     -83.304445      916.90561    
     25600   308.08193      632.4154       64000          0.46742303     838.5534      -78.861995      917.41539    
     25700   299.5841       574.83278      64000          0.46742303     796.90143     -95.20886       892.11029    
     25800   309.8112       597.79866      64000          0.46742303     829.30931     -93.255537      922.56485    
     25900   310.28105      603.23676      64000          0.46742303     837.45134     -86.512661      923.964      
     26000   294.39334      564.03696      64000          0.46742303     788.48324     -88.169838      876.65308    
     26100   302.69028      595.34058      64000          0.46742303     805.89799     -95.461982      901.35997    
     26200   307.34025      595.54462      64000          0.46742303     817.58882     -97.617975      915.2068     
     26300   305.11003      592.56666      64000          0.46742303     819.77927     -88.786301      908.56557    
     26400   302.2294       586.80722      64000          0.46742303     802.31133     -97.676212      899.98754    
     26500   296.40766      616.43845      64000          0.46742303     783.48738     -99.164016      882.65139    
     26600   313.20212      633.53381      64000          0.46742303     845.33695     -87.325497      932.66244    
     26700   301.5558       598.62656      64000          0.46742303     816.13526     -81.846418      897.98168    
     26800   299.7525       587.51028      64000          0.46742303     792.76266     -99.849107      892.61176    
     26900   302.96263      630.26899      64000          0.46742303     814.82523     -87.345764      902.17099    
     27000   305.97133      590.73947      64000          0.46742303     830.71065     -80.419714      911.13037    
     27100   295.81191      573.55417      64000          0.46742303     802.83907     -78.038283      880.87735    
     27200   300.32168      566.42447      64000          0.46742303     808.86785     -85.438838      894.30669    
     27300   305.86         562.91275      64000          0.46742303     819.03729     -91.761552      910.79884    
     27400   294.18707      533.55915      64000          0.46742303     789.88248     -86.156379      876.03886    
     27500   285.67891      538.13833      64000          0.46742303     769.02643     -81.676581      850.70301    
     27600   315.92913      612.2895       64000          0.46742303     846.81746     -93.965536      940.78299    
     27700   294.79601      536.31977      64000          0.46742303     781.49465     -96.357536      877.85218    
     27800   286.69449      562.01688      64000          0.46742303     767.11553     -86.611692      853.72722    
     27900   298.48162      519.46302      64000          0.46742303     790.67737     -98.149934      888.8273     
     28000   307.08153      572.53896      64000          0.46742303     814.98686     -99.449509      914.43637    
     28100   286.4139       496.34708      64000          0.46742303     760.67042     -92.221255      852.89167    
     28200   294.45741      554.81254      64000          0.46742303     777.13338     -99.710516      876.84389    
     28300   294.31446      532.08105      64000          0.46742303     783.54085     -92.877358      876.4182     
     28400   290.9791       538.23971      64000          0.46742303     763.17674     -103.30933      866.48607    
     28500   310.60777      587.68705      64000          0.46742303     826.06905     -98.867852      924.9369     
     28600   299.60778      528.39687      64000          0.46742303     795.78338     -96.397428      892.18081    
     28700   298.97164      562.7832       64000          0.46742303     796.24096     -94.045531      890.28649    
     28800   302.93904      572.54928      64000          0.46742303     808.1168      -93.98394       902.10074    
     28900   310.29951      608.38247      64000          0.46742303     812.83291     -111.18605      924.01896    
     29000   301.78087      595.60737      64000          0.46742303     787.3326      -111.31929      898.65189    
     29100   299.96282      570.95763      64000          0.46742303     791.48903     -101.74903      893.23806    
     29200   298.24495      594.57696      64000          0.46742303     792.34498     -95.777559      888.12254    
     29300   293.70551      519.52018      64000          0.46742303     776.04666     -98.558211      874.60487    
     29400   295.68888      562.49796      64000          0.46742303     795.26204     -85.248964      880.511      
     29500   294.71549      545.39865      64000          0.46742303     793.12315     -84.489264      877.61241    
     29600   301.42435      610.88419      64000          0.46742303     805.91393     -91.676304      897.59023    
     29700   301.23623      600.20042      64000          0.46742303     809.37513     -87.654919      897.03005    
     29800   304.5435       533.00003      64000          0.46742303     816.01356     -90.864991      906.87855    
     29900   291.76106      574.72479      64000          0.46742303     773.35226     -95.462353      868.81462    
     30000   291.86247      550.01597      64000          0.46742303     777.70341     -91.413203      869.11661    
     30100   295.22396      548.34423      64000          0.46742303     780.5937      -98.532828      879.12653    
     30200   299.05044      603.80054      64000          0.46742303     793.35395     -97.167201      890.52115    
     30300   297.72843      590.99066      64000          0.46742303     790.27886     -96.305565      886.58442    
     30400   297.50604      562.3167       64000          0.46742303     797.15631     -88.765868      885.92218    
     30500   292.19143      567.27011      64000          0.46742303     772.20048     -97.895708      870.09619    
     30600   302.32359      606.75221      64000          0.46742303     804.75329     -95.514732      900.26802    
     30700   309.18053      642.19669      64000          0.46742303     828.89269     -91.794151      920.68684    
     30800   295.28698      572.23689      64000          0.46742303     793.01427     -86.299936      879.3142     
     30900   294.04469      581.8613       64000          0.46742303     786.0479      -89.566987      875.61489    
     31000   300.12155      601.12734      64000          0.46742303     804.7405      -88.970241      893.71074    
     31100   297.47263      542.56572      64000          0.46742303     787.48952     -98.333177      885.8227     
     31200   295.87798      582.28318      64000          0.46742303     788.47849     -92.595619      881.07411    
     31300   306.3201       577.81737      64000          0.46742303     816.81118     -95.357755      912.16894    
     31400   299.52418      592.40519      64000          0.46742303     817.05627     -74.875591      891.93186    
     31500   308.02054      618.19755      64000          0.46742303     843.70914     -73.523439      917.23258    
     31600   306.92315      646.21513      64000          0.46742303     833.76567     -80.199074      913.96474    
     31700   291.02141      546.0611       64000          0.46742303     783.20283     -83.409243      866.61207    
     31800   300.5852       576.67479      64000          0.46742303     799.76195     -95.329452      895.09141    
     31900   295.4613       576.87262      64000          0.46742303     781.02541     -98.807894      879.8333     
     32000   297.77206      570.21305      64000          0.46742303     791.96292     -94.751418      886.71434    
     32100   314.93673      622.864        64000          0.46742303     847.8169      -90.010891      937.82779    
     32200   307.33921      582.42285      64000          0.46742303     831.13682     -84.066864      915.20369    
     32300   304.9967       552.65414      64000          0.46742303     807.91717     -100.31092      908.22808    
     32400   293.99174      568.23936      64000          0.46742303     788.75672     -86.70047       875.45719    
     32500   293.84247      575.89174      64000          0.46742303     779.07981     -95.9329        875.01271    
     32600   301.16796      586.37045      64000          0.46742303     811.38264     -85.444123      896.82677    
     32700   307.02866      595.06568      64000          0.46742303     825.68364     -88.595274      914.27892    
     32800   293.07257      582.1004       64000          0.46742303     770.10814     -102.61193      872.72008    
     32900   294.6212       564.48308      64000          0.46742303     774.30146     -103.03017      877.33163    
     33000   284.22012      535.53695      64000          0.46742303     753.2532      -93.105794      846.35899    
     33100   303.57162      556.56863      64000          0.46742303     800.26402     -103.72043      903.98445    
     33200   295.43452      555.63676      64000          0.46742303     775.00252     -104.75103      879.75355    
     33300   289.65291      538.27135      64000          0.46742303     756.21        -106.3269       862.5369     
     33400   290.7527       586.08958      64000          0.46742303     763.91524     -101.89667      865.81191    
     33500   308.43746      570.10987      64000          0.46742303     809.41179     -109.06231      918.4741     
     33600   304.03886      567.24461      64000          0.46742303     813.16612     -92.209689      905.37581    
     33700   309.32098      574.596        64000          0.46742303     832.56453     -88.540524      921.10506    
     33800   309.13216      578.44728      64000          0.46742303     825.95743     -94.585351      920.54278    
     33900   297.88408      572.79757      64000          0.46742303     786.42881     -100.61911      887.04793    
     34000   303.69457      578.47135      64000          0.46742303     817.52072     -86.829866      904.35058    
     34100   295.28915      582.1196       64000          0.46742303     784.78939     -94.531284      879.32067    
     34200   302.44977      547.16013      64000          0.46742303     807.14703     -93.496731      900.64376    
     34300   297.96974      573.87894      64000          0.46742303     789.5057      -97.79732       887.30302    
     34400   299.33969      572.41993      64000          0.46742303     794.58112     -96.801355      891.38247    
     34500   289.44517      548.46355      64000          0.46742303     773.94802     -87.970253      861.91828    
     34600   290.79462      520.56047      64000          0.46742303     780.19966     -85.737072      865.93673    
     34700   300.08137      600.56742      64000          0.46742303     797.73349     -95.85757       893.59106    
     34800   297.21047      587.97093      64000          0.46742303     787.40373     -97.638311      885.04204    
     34900   307.83293      609.24684      64000          0.46742303     825.02804     -91.645869      916.67391    
     35000   293.99817      563.74152      64000          0.46742303     778.15661     -97.319736      875.47634    
     35100   300.88196      618.69367      64000          0.46742303     805.07238     -90.90273       895.97511    
     35200   292.99083      583.43786      64000          0.46742303     783.50063     -88.976034      872.47667    
     35300   295.48864      621.86756      64000          0.46742303     794.75596     -85.158757      879.91471    
     35400   304.62354      549.44288      64000          0.46742303     811.3808      -95.736082      907.11688    
     35500   316.91981      580.23586      64000          0.46742303     854.13756     -89.595513      943.73307    
     35600   295.44388      553.7472       64000          0.46742303     791.76077     -88.020669      879.78143    
     35700   305.58988      593.27458      64000          0.46742303     815.35471     -94.639783      909.99449    
     35800   302.15139      603.20521      64000          0.46742303     808.65453     -91.100709      899.75524    
     35900   297.74144      582.44474      64000          0.46742303     786.44189     -100.18128      886.62317    
     36000   297.56585      582.74861      64000          0.46742303     803.33576     -82.764521      886.10028    
     36100   295.31731      557.75392      64000          0.46742303     793.39668     -86.00783       879.40451    
     36200   294.93156      604.34301      64000          0.46742303     787.42696     -90.828849      878.25581    
     36300   302.30985      604.30638      64000          0.46742303     810.92706     -89.30004       900.2271     
     36400   295.57243      551.07095      64000          0.46742303     787.41238     -92.75184       880.16422    
     36500   315.67877      588.02354      64000          0.46742303     839.11073     -100.92675      940.03748    
     36600   305.92503      553.47175      64000          0.46742303     819.05662     -91.935876      910.9925     
     36700   305.03698      588.62987      64000          0.46742303     812.01872     -96.329318      908.34803    
     36800   294.66692      554.02397      64000          0.46742303     790.85677     -86.611015      877.46778    
     36900   299.7891       577.16989      64000          0.46742303     811.44604     -81.27471       892.72075    
     37000   308.50421      558.26912      64000          0.46742303     831.51331     -87.15955       918.67286    
     37100   301.17312      576.26495      64000          0.46742303     794.17941     -102.66272      896.84213    
     37200   297.53855      560.96036      64000          0.46742303     790.14741     -95.871571      886.01898    
     37300   306.30074      564.04289      64000          0.46742303     825.97228     -86.139008      912.11129    
     37400   308.69811      599.41955      64000          0.46742303     824.73388     -94.516381      919.25026    
     37500   295.70645      550.42997      64000          0.46742303     782.67288     -97.890433      880.56332    
     37600   302.263        605.67054      64000          0.46742303     804.54261     -95.544992      900.0876     
     37700   301.51202      527.57862      64000          0.46742303     806.02674     -91.824585      897.85132    
     37800   294.04621      544.49578      64000          0.46742303     786.51138     -89.108034      875.61941    
     37900   307.18901      569.82902      64000          0.46742303     828.46134     -86.295069      914.75641    
     38000   297.87412      566.92916      64000          0.46742303     808.15623     -78.862044      887.01828    
     38100   305.71411      581.22973      64000          0.46742303     829.37908     -80.985336      910.36441    
     38200   290.77531      555.18619      64000          0.46742303     774.01656     -91.862668      865.87923    
     38300   305.1844       582.52401      64000          0.46742303     815.83311     -92.953912      908.78702    
     38400   303.72769      587.87482      64000          0.46742303     816.66589     -87.78331       904.4492     
     38500   289.86291      582.67835      64000          0.46742303     765.40277     -97.75949       863.16226    
     38600   288.66833      527.56003      64000          0.46742303     767.47521     -92.129794      859.605      
     38700   310.43056      596.57953      64000          0.46742303     825.76581     -98.643404      924.40921    
     38800   288.11054      551.37912      64000          0.46742303     769.02772     -88.916266      857.94399    
     38900   302.52332      552.74871      64000          0.46742303     805.775       -95.087776      900.86277    
     39000   297.73936      551.66219      64000          0.46742303     799.51981     -87.097157      886.61697    
     39100   288.56629      542.13902      64000          0.46742303     755.69938     -103.60175      859.30112    
     39200   300.39554      581.84261      64000          0.46742303     799.90447     -94.62217       894.52664    
     39300   307.53348      602.61257      64000          0.46742303     828.97737     -86.804808      915.78218    
     39400   294.79131      566.77456      64000          0.46742303     783.5525      -94.285696      877.83819    
     39500   304.92148      555.19615      64000          0.46742303     819.14958     -88.854508      908.00409    
     39600   307.35021      600.5363       64000          0.46742303     819.45712     -95.779322      915.23645    
     39700   288.13361      603.89914      64000          0.46742303     763.21378     -94.7989        858.01268    
     39800   283.83054      556.23919      64000          0.46742303     749.31965     -95.879223      845.19887    
     39900   309.55836      571.03157      64000          0.46742303     835.84625     -85.965689      921.81193    
     40000   307.6606       598.25127      64000          0.46742303     825.87845     -90.28227       916.16072    
     40100   301.30881      588.57086      64000          0.46742303     810.79096     -86.455241      897.2462     
     40200   308.63451      551.06796      64000          0.46742303     836.16461     -82.896267      919.06088    
     40300   307.43919      589.44864      64000          0.46742303     830.78368     -84.717732      915.50142    
     40400   302.16965      606.87848      64000          0.46742303     802.0711      -97.738535      899.80963    
     40500   285.72513      547.24111      64000          0.46742303     756.99077     -93.849885      850.84066    
     40600   297.7108       578.85641      64000          0.46742303     792.55974     -93.972177      886.53192    
     40700   286.99946      520.14642      64000          0.46742303     763.6346      -91.000798      854.63539    
     40800   291.71666      541.62779      64000          0.46742303     763.90992     -104.77249      868.68241    
     40900   297.85046      538.73958      64000          0.46742303     784.05349     -102.89431      886.9478     
     41000   299.45127      618.34477      64000          0.46742303     781.30411     -110.41063      891.71474    
     41100   301.94512      589.07808      64000          0.46742303     810.58933     -88.551676      899.141      
     41200   286.04624      543.66085      64000          0.46742303     747.84629     -103.95057      851.79686    
     41300   298.80929      537.18058      64000          0.46742303     785.583       -104.22003      889.80303    
     41400   289.63151      527.31926      64000          0.46742303     750.58413     -111.88904      862.47317    
     41500   303.00456      580.15121      64000          0.46742303     789.48816     -112.80769      902.29585    
     41600   291.46208      544.56324      64000          0.46742303     755.3799      -112.54441      867.92431    
     41700   296.68965      500.33322      64000          0.46742303     768.02167     -115.46945      883.49112    
     41800   298.91656      546.51615      64000          0.46742303     783.72874     -106.39374      890.12248    
     41900   302.2245       619.66482      64000          0.46742303     798.7656      -101.20734      899.97294    
     42000   298.20855      555.84886      64000          0.46742303     797.19685     -90.817285      888.01414    
     42100   299.67263      566.53185      64000          0.46742303     801.16663     -91.207303      892.37393    
     42200   306.95689      606.12285      64000          0.46742303     822.21084     -91.85436       914.0652     
     42300   300.32211      557.31934      64000          0.46742303     791.12556     -103.18241      894.30797    
     42400   298.04533      555.20485      64000          0.46742303     777.38128     -110.14682      887.5281     
     42500   322.48716      610.50399      64000          0.46742303     867.31012     -93.001565      960.31169    
     42600   273.79663      522.0909       64000          0.46742303     717.62058     -97.699045      815.31962    
     42700   292.44004      558.37328      64000          0.46742303     774.06819     -96.768326      870.83652    
     42800   298.51732      595.75694      64000          0.46742303     795.30138     -93.632214      888.9336     
     42900   307.68917      583.90878      64000          0.46742303     822.90135     -93.344468      916.24582    
     43000   294.15243      530.82269      64000          0.46742303     777.97808     -97.957635      875.93572    
     43100   306.28737      580.4821       64000          0.46742303     819.36104     -92.710442      912.07149    
     43200   301.79606      622.27947      64000          0.46742303     823.18527     -75.511867      898.69714    
     43300   297.16084      592.77665      64000          0.46742303     797.26305     -87.631193      884.89424    
     43400   298.91859      587.83204      64000          0.46742303     803.74321     -86.3853        890.12851    
     43500   306.89293      583.13926      64000          0.46742303     821.9783      -91.89645       913.87475    
     43600   301.58868      579.63494      64000          0.46742303     803.64325     -94.436328      898.07958    
     43700   292.3571       570.38504      64000          0.46742303     795.63479     -74.954723      870.58951    
     43800   312.04706      610.07121      64000          0.46742303     839.8433      -89.37956       929.22286    
     43900   305.79713      585.2223       64000          0.46742303     819.65434     -90.957313      910.61165    
     44000   314.35545      597.38716      64000          0.46742303     846.6006      -89.496239      936.09684    
     44100   299.0274       575.06877      64000          0.46742303     804.02502     -86.427509      890.45253    
     44200   302.89891      525.68437      64000          0.46742303     811.5237      -90.457535      901.98123    
     44300   298.63547      566.54976      64000          0.46742303     803.73842     -85.547026      889.28545    
     44400   314.24137      593.61104      64000          0.46742303     848.38774     -87.369414      935.75715    
     44500   301.66522      602.04903      64000          0.46742303     803.78213     -94.525378      898.3075     
     44600   299.12509      556.91258      64000          0.46742303     792.084       -98.659427      890.74343    
     44700   304.78047      585.42898      64000          0.46742303     819.97627     -87.607917      907.58419    
     44800   310.26663      600.36316      64000          0.46742303     826.51859     -97.402437      923.92103    
     44900   301.23804      573.03046      64000          0.46742303     797.01227     -100.02318      897.03545    
     45000   310.09689      614.0961       64000          0.46742303     817.02115     -106.39444      923.41559    
     45100   294.32093      579.01366      64000          0.46742303     788.0408      -88.396683      876.43748    
     45200   309.54898      591.44706      64000          0.46742303     824.01615     -97.767866      921.78401    
     45300   304.16795      564.7693       64000          0.46742303     807.34256     -98.417645      905.7602     
     45400   290.15756      538.66527      64000          0.46742303     770.40716     -93.63251       864.03967    
     45500   301.14437      552.30479      64000          0.46742303     804.80589     -91.950625      896.75651    
     45600   296.18825      575.91354      64000          0.46742303     788.60816     -93.389883      881.99804    
     45700   297.50925      563.25229      64000          0.46742303     790.26436     -95.667373      885.93173    
     45800   296.44736      584.43345      64000          0.46742303     789.65724     -93.112391      882.76963    
     45900   320.54683      663.0495       64000          0.46742303     861.3434      -93.190314      954.53371    
     46000   305.17457      571.28881      64000          0.46742303     792.4042      -116.35357      908.75777    
     46100   312.34339      595.82312      64000          0.46742303     834.54121     -95.564084      930.10529    
     46200   303.5712       614.78985      64000          0.46742303     796.2149      -107.76828      903.98318    
     46300   297.92873      582.5296       64000          0.46742303     790.78841     -96.392476      887.18089    
     46400   312.74166      592.37562      64000          0.46742303     828.7326      -102.55866      931.29127    
     46500   292.88317      500.36251      64000          0.46742303     770.47485     -101.68121      872.15606    
     46600   306.55519      567.1144       64000          0.46742303     815.68717     -97.181851      912.86902    
     46700   300.74686      595.44672      64000          0.46742303     806.33136     -89.241433      895.57279    
     46800   305.00096      595.5232       64000          0.46742303     810.531       -97.709786      908.24078    
     46900   306.86073      559.97973      64000          0.46742303     808.63926     -105.13958      913.77884    
     47000   309.91568      610.83256      64000          0.46742303     834.33021     -88.545754      922.87596    
     47100   300.13919      533.17047      64000          0.46742303     804.18327     -89.579985      893.76326    
     47200   295.78076      545.77815      64000          0.46742303     782.91901     -97.865579      880.78459    
     47300   305.28388      609.91512      64000          0.46742303     812.25112     -96.832148      909.08327    
     47400   296.53625      570.47365      64000          0.46742303     793.16148     -89.872836      883.03432    
     47500   301.82105      575.16794      64000          0.46742303     821.76709     -77.004476      898.77156    
     47600   294.5271       528.24264      64000          0.46742303     802.31995     -74.731462      877.05141    
     47700   295.96797      565.34475      64000          0.46742303     795.18516     -86.156923      881.34209    
     47800   298.123        555.11304      64000          0.46742303     800.47929     -87.280097      887.75938    
     47900   303.54029      592.42789      64000          0.46742303     817.23899     -86.652148      903.89114    
     48000   296.93138      554.69895      64000          0.46742303     793.28901     -90.921939      884.21095    
     48100   298.48491      581.94651      64000          0.46742303     804.8273      -84.009791      888.83709    
     48200   297.99947      576.70661      64000          0.46742303     794.46494     -92.926594      887.39153    
     48300   316.91355      634.77332      64000          0.46742303     855.35206     -88.362366      943.71443    
     48400   300.32491      598.71679      64000          0.46742303     799.74986     -94.566425      894.31629    
     48500   289.73259      560.37069      64000          0.46742303     773.44186     -89.332324      862.77418    
     48600   306.57529      608.25595      64000          0.46742303     834.93209     -77.996778      912.92887    
     48700   294.37539      565.69626      64000          0.46742303     793.42868     -83.170964      876.59964    
     48800   297.76588      577.22294      64000          0.46742303     790.69954     -95.996418      886.69596    
     48900   316.65193      637.03297      64000          0.46742303     852.11114     -90.824243      942.93538    
     49000   296.0945       564.43907      64000          0.46742303     797.3689      -84.349961      881.71886    
     49100   292.02246      557.49824      64000          0.46742303     785.60594     -83.987087      869.59302    
     49200   295.26464      564.38138      64000          0.46742303     785.77548     -93.47219       879.24767    
     49300   284.70371      530.08456      64000          0.46742303     754.3216      -93.477427      847.79903    
     49400   306.69258      564.39764      64000          0.46742303     817.64801     -95.630124      913.27813    
     49500   302.39051      586.71312      64000          0.46742303     811.87568     -88.591617      900.4673     
     49600   299.00518      582.40261      64000          0.46742303     802.25475     -88.131607      890.38636    
     49700   298.16496      562.73164      64000          0.46742303     798.15563     -89.728694      887.88433    
     49800   291.00574      531.6006       64000          0.46742303     788.05229     -78.513117      866.56541    
     49900   298.32         569.53791      64000          0.46742303     808.61786     -79.728164      888.34602    
     50000   301.33656      567.02879      64000          0.46742303     815.20485     -82.123967      897.32882    
     50100   292.00294      595.37816      64000          0.46742303     787.19117     -82.343715      869.53488    
     50200   292.31703      594.25791      64000          0.46742303     787.58362     -82.886588      870.4702     
     50300   303.63941      572.44962      64000          0.46742303     809.95246     -94.233863      904.18632    
     50400   286.40902      533.2758       64000          0.46742303     758.08746     -94.7897        852.87716    
     50500   306.20941      557.70107      64000          0.46742303     817.43279     -94.406541      911.83934    
     50600   294.35156      549.87527      64000          0.46742303     792.44775     -84.080924      876.52867    
     50700   280.99499      517.29615      64000          0.46742303     751.58859     -85.166515      836.75511    
     50800   300.9608       575.97201      64000          0.46742303     813.41738     -82.792482      896.20987    
     50900   309.91538      598.66904      64000          0.46742303     830.59418     -92.280906      922.87509    
     51000   297.04286      538.33628      64000          0.46742303     796.1885      -88.354412      884.54291    
     51100   311.4232       586.2751       64000          0.46742303     832.41794     -94.947189      927.36512    
     51200   292.87241      555.94534      64000          0.46742303     781.40692     -90.717097      872.12402    
     51300   297.46849      582.79139      64000          0.46742303     801.91054     -83.899841      885.81038    
     51400   302.43049      542.88378      64000          0.46742303     813.80247     -86.783891      900.58636    
     51500   307.36977      623.89076      64000          0.46742303     820.01788     -95.276815      915.29469    
     51600   305.18766      570.85012      64000          0.46742303     826.24668     -82.550052      908.79674    
     51700   297.86733      582.98598      64000          0.46742303     807.75743     -79.240612      886.99804    
     51800   312.79698      612.44263      64000          0.46742303     837.72097     -93.735015      931.45599    
     51900   295.76489      575.08943      64000          0.46742303     793.55413     -87.183201      880.73733    
     52000   288.1252       562.38693      64000          0.46742303     771.18912     -86.798521      857.98764    
     52100   304.65304      591.73481      64000          0.46742303     825.23704     -81.967701      907.20474    
     52200   297.75901      586.33603      64000          0.46742303     791.22238     -95.453119      886.6755     
     52300   305.80785      564.75842      64000          0.46742303     816.87835     -93.765222      910.64357    
     52400   306.50154      567.56129      64000          0.46742303     825.07812     -87.631127      912.70925    
     52500   306.9877       611.8217       64000          0.46742303     819.00803     -95.148912      914.15694    
     52600   321.79211      592.69761      64000          0.46742303     857.41743     -100.82453      958.24196    
     52700   282.82148      510.16731      64000          0.46742303     744.40428     -97.789802      842.19408    
     52800   299.82833      565.64069      64000          0.46742303     801.57813     -91.259432      892.83756    
     52900   306.03013      571.53382      64000          0.46742303     814.89997     -96.405508      911.30548    
     53000   311.02624      551.94427      64000          0.46742303     825.72005     -100.46298      926.18304    
     53100   287.34166      544.72619      64000          0.46742303     763.7085      -91.9459        855.6544     
     53200   292.09612      539.47862      64000          0.46742303     776.0887      -93.723666      869.81237    
     53300   299.75322      576.17237      64000          0.46742303     808.93207     -83.681842      892.61391    
     53400   294.68695      547.26066      64000          0.46742303     786.88725     -90.640168      877.52742    
     53500   306.66927      564.59092      64000          0.46742303     819.10824     -94.100477      913.20872    
     53600   291.44558      561.48718      64000          0.46742303     772.93582     -94.939336      867.87516    
     53700   297.90837      581.02656      64000          0.46742303     794.46074     -92.659502      887.12024    
     53800   298.06161      548.44319      64000          0.46742303     790.30252     -97.274066      887.57658    
     53900   284.18337      511.23968      64000          0.46742303     755.24        -91.009546      846.24954    
     54000   309.03525      563.07092      64000          0.46742303     834.24897     -86.005232      920.2542     
     54100   295.39706      600.91542      64000          0.46742303     790.05327     -89.588737      879.64201    
     54200   303.83313      555.61874      64000          0.46742303     810.69181     -94.071381      904.76319    
     54300   309.42232      567.85178      64000          0.46742303     831.41429     -89.992529      921.40682    
     54400   290.56619      527.92157      64000          0.46742303     767.65708     -97.599423      865.25651    
     54500   295.68833      566.2241       64000          0.46742303     779.93202     -100.57734      880.50936    
     54600   302.66506      629.83717      64000          0.46742303     807.74339     -93.541464      901.28485    
     54700   287.5435       602.01407      64000          0.46742303     764.02423     -92.231221      856.25545    
     54800   305.09275      604.10051      64000          0.46742303     806.26935     -102.24477      908.51412    
     54900   300.29149      603.57612      64000          0.46742303     800.90043     -93.316346      894.21678    
     55000   300.64302      571.43959      64000          0.46742303     791.61254     -103.65104      895.26359    
     55100   312.78191      604.23886      64000          0.46742303     829.53318     -101.87792      931.41111    
     55200   312.773        605.38514      64000          0.46742303     831.81086     -99.573742      931.3846     
     55300   307.43676      575.69603      64000          0.46742303     818.11338     -97.380787      915.49417    
     55400   299.19323      588.12321      64000          0.46742303     779.63668     -111.30967      890.94635    
     55500   292.69004      568.43889      64000          0.46742303     760.56805     -111.0129       871.58095    
     55600   294.51829      552.6213       64000          0.46742303     767.32575     -109.69944      877.02518    
     55700   296.67838      576.19161      64000          0.46742303     769.65808     -113.79948      883.45757    
     55800   307.40264      594.47099      64000          0.46742303     812.34831     -103.04426      915.39257    
     55900   305.09931      558.68947      64000          0.46742303     799.98105     -108.5526       908.53365    
     56000   312.1566       602.14175      64000          0.46742303     829.60196     -99.947105      929.54906    
     56100   301.82831      595.68459      64000          0.46742303     786.49203     -112.30113      898.79316    
     56200   307.06376      585.43285      64000          0.46742303     816.14403     -98.239404      914.38344    
     56300   292.59025      562.08757      64000          0.46742303     767.69668     -103.58712      871.28379    
     56400   296.5151       562.35522      64000          0.46742303     783.36837     -99.602954      882.97132    
     56500   292.44047      537.81683      64000          0.46742303     774.20525     -96.632525      870.83777    
     56600   294.21536      563.38098      64000          0.46742303     780.54291     -95.580188      876.1231     
     56700   288.90249      542.50529      64000          0.46742303     767.45937     -92.842922      860.30229    
     56800   300.62652      582.53184      64000          0.46742303     807.01627     -88.19818       895.21445    
     56900   309.18655      637.49354      64000          0.46742303     824.29203     -96.412721      920.70475    
     57000   305.57981      595.61142      64000          0.46742303     809.88695     -100.07754      909.96449    
     57100   303.30282      586.60932      64000          0.46742303     805.94348     -97.240523      903.18401    
     57200   304.36736      581.36057      64000          0.46742303     807.05063     -99.303389      906.35402    
     57300   295.3528       600.46115      64000          0.46742303     787.95998     -91.55024       879.51022    
     57400   310.04289      596.74869      64000          0.46742303     822.05848     -101.19629      923.25477    
     57500   292.38238      533.96007      64000          0.46742303     756.22364     -114.44115      870.66479    
     57600   298.70737      481.38391      64000          0.46742303     770.47548     -119.02406      889.49953    
     57700   313.18979      564.07526      64000          0.46742303     824.59772     -108.02801      932.62572    
     57800   309.88306      566.68581      64000          0.46742303     812.33811     -110.44073      922.77884    
     57900   300.73787      558.96046      64000          0.46742303     800.35041     -95.195599      895.54601    
     58000   307.83359      603.64354      64000          0.46742303     812.63163     -104.04424      916.67586    
     58100   305.18508      585.93441      64000          0.46742303     800.92686     -107.86218      908.78904    
     58200   289.64898      573.08956      64000          0.46742303     755.69        -106.83522      862.52522    
     58300   299.46651      559.31523      64000          0.46742303     785.48134     -106.2788       891.76014    
     58400   307.78004      589.80609      64000          0.46742303     817.08515     -99.431259      916.51641    
     58500   296.98139      563.82159      64000          0.46742303     807.289       -77.070878      884.35988    
     58600   286.68709      541.71437      64000          0.46742303     760.59897     -93.106245      853.70521    
     58700   293.47689      554.9956       64000          0.46742303     783.97738     -89.946695      873.92408    
     58800   305.3626       585.57984      64000          0.46742303     808.27968     -101.03799      909.31767    
     58900   295.25669      559.76165      64000          0.46742303     783.61165     -95.612363      879.22402    
     59000   298.80928      591.75254      64000          0.46742303     793.86555     -95.937443      889.803      
     59100   300.33224      556.0169       64000          0.46742303     804.91082     -89.427301      894.33812    
     59200   295.23974      564.88172      64000          0.46742303     789.06295     -90.110594      879.17354    
     59300   300.83738      558.08797      64000          0.46742303     790.09276     -105.74957      895.84233    
     59400   294.41334      546.74726      64000          0.46742303     784.59938     -92.113281      876.71266    
     59500   294.73992      583.99476      64000          0.46742303     787.99595     -89.689193      877.68514    
     59600   295.64186      576.53729      64000          0.46742303     788.03745     -92.333519      880.37097    
     59700   305.34667      609.8215       64000          0.46742303     811.6132      -97.657043      909.27024    
     59800   306.29582      583.81447      64000          0.46742303     814.04213     -98.054526      912.09665    
     59900   284.98352      551.16227      64000          0.46742303     749.71287     -98.919394      848.63227    
     60000   305.28534      626.61139      64000          0.46742303     808.90803     -100.17957      909.0876     
     60100   304.2713       591.67782      64000          0.46742303     812.40018     -93.667795      906.06798    
     60200   315.91073      646.80925      64000          0.46742303     841.22967     -99.498528      940.7282     
     60300   310.67561      635.2579       64000          0.46742303     819.97496     -105.16395      925.13892    
     60400   299.04118      586.39133      64000          0.46742303     800.31408     -90.1795        890.49358    
     60500   303.35714      606.1367       64000          0.46742303     815.48557     -87.8602        903.34578    
     60600   290.64379      583.7686       64000          0.46742303     757.82734     -107.66025      865.48759    
[...]
   2984000   290.63302      538.09643      64000          0.46742303     765.06241     -100.39309      865.45549    
   2984100   315.28082      584.39174      64000          0.46742303     840.80622     -98.046217      938.85244    
   2984200   303.03723      593.22284      64000          0.46742303     804.339       -98.054121      902.39312    
   2984300   316.39985      639.82697      64000          0.46742303     852.3033      -89.881427      942.18473    
   2984400   301.72822      579.38904      64000          0.46742303     788.17058     -110.32454      898.49513    
   2984500   294.86569      580.48831      64000          0.46742303     767.34815     -110.71153      878.05968    
   2984600   294.48366      543.24637      64000          0.46742303     780.77394     -96.148131      876.92207    
   2984700   295.47027      566.4092       64000          0.46742303     781.2505      -98.609509      879.86001    
   2984800   301.56032      546.96493      64000          0.46742303     785.7117      -112.28343      897.99513    
   2984900   285.61243      538.77731      64000          0.46742303     747.81258     -102.69248      850.50506    
   2985000   294.82422      547.98745      64000          0.46742303     772.45888     -105.47729      877.93617    
   2985100   300.76965      584.29476      64000          0.46742303     809.288       -86.352656      895.64065    
   2985200   300.32908      604.80798      64000          0.46742303     793.28443     -101.0443       894.32873    
   2985300   304.40942      603.62007      64000          0.46742303     809.12828     -97.351007      906.47928    
   2985400   298.37143      565.32928      64000          0.46742303     795.10105     -93.398114      888.49916    
   2985500   299.67643      554.12911      64000          0.46742303     787.97192     -104.41332      892.38524    
   2985600   297.64693      590.61115      64000          0.46742303     785.49455     -100.84719      886.34174    
   2985700   302.59635      569.95519      64000          0.46742303     794.43795     -106.64231      901.08025    
   2985800   294.82159      588.08051      64000          0.46742303     788.80793     -89.120429      877.92836    
   2985900   286.236        584.13854      64000          0.46742303     765.82037     -86.541573      852.36194    
   2986000   295.34257      581.75554      64000          0.46742303     790.52951     -88.950234      879.47974    
   2986100   297.36399      561.34308      64000          0.46742303     809.65766     -75.841522      885.49918    
   2986200   305.1767       612.01426      64000          0.46742303     830.68862     -78.075476      908.7641     
   2986300   307.14134      617.46612      64000          0.46742303     827.85146     -86.762994      914.61445    
   2986400   308.33659      552.48783      64000          0.46742303     833.69613     -84.477577      918.1737     
   2986500   297.78313      534.9352       64000          0.46742303     799.27306     -87.47424       886.7473     
   2986600   287.60592      529.38797      64000          0.46742303     771.39213     -85.049191      856.44132    
   2986700   295.0004       579.80999      64000          0.46742303     788.02611     -90.434719      878.46083    
   2986800   286.03709      548.83348      64000          0.46742303     750.63626     -101.13335      851.7696     
   2986900   299.75048      592.49581      64000          0.46742303     791.6699      -100.93583      892.60573    
   2987000   309.29013      623.1511       64000          0.46742303     832.89621     -88.116983      921.01319    
   2987100   317.57004      598.73838      64000          0.46742303     845.13904     -100.53031      945.66935    
   2987200   281.54668      540.15019      64000          0.46742303     727.77986     -110.61806      838.39792    
   2987300   307.17395      583.97894      64000          0.46742303     806.07173     -108.63984      914.71157    
   2987400   300.35784      572.8642       64000          0.46742303     779.6713      -114.74307      894.41436    
   2987500   315.22689      599.70022      64000          0.46742303     838.23202     -100.45982      938.69184    
   2987600   298.79755      561.87696      64000          0.46742303     790.35439     -99.413694      889.76808    
   2987700   289.77062      537.09936      64000          0.46742303     768.35983     -94.527599      862.88743    
   2987800   311.64757      597.47966      64000          0.46742303     831.7981      -96.235132      928.03323    
   2987900   286.66434      558.80862      64000          0.46742303     756.85233     -96.785114      853.63745    
   2988000   293.51167      555.38668      64000          0.46742303     788.73354     -85.29408       874.02762    
   2988100   309.28621      597.40409      64000          0.46742303     828.4755      -92.526015      921.00152    
   2988200   304.83614      591.91034      64000          0.46742303     817.66189     -90.088073      907.74996    
   2988300   304.70941      598.65336      64000          0.46742303     815.69067     -91.681928      907.3726     
   2988400   313.84483      574.43294      64000          0.46742303     832.84093     -101.73538      934.5763     
   2988500   293.41291      544.18078      64000          0.46742303     770.22083     -103.51273      873.73356    
   2988600   288.84433      561.72639      64000          0.46742303     750.67508     -109.454        860.12908    
   2988700   310.52501      585.00994      64000          0.46742303     805.31392     -119.37652      924.69044    
   2988800   302.64286      577.65672      64000          0.46742303     796.91966     -104.2991       901.21876    
   2988900   295.96825      603.29683      64000          0.46742303     781.49948     -99.843423      881.34291    
   2989000   294.67337      590.86966      64000          0.46742303     782.57703     -94.909931      877.48697    
   2989100   310.28948      616.94801      64000          0.46742303     823.09629     -100.8928       923.98909    
   2989200   296.38974      571.86098      64000          0.46742303     775.00136     -107.59668      882.59804    
   2989300   304.95585      555.54156      64000          0.46742303     817.97004     -90.136412      908.10646    
   2989400   307.95202      615.57007      64000          0.46742303     830.2764      -86.752144      917.02854    
   2989500   292.34395      571.58002      64000          0.46742303     770.02039     -100.52997      870.55036    
   2989600   300.61028      584.70914      64000          0.46742303     794.34087     -100.82521      895.16608    
   2989700   296.58589      584.81151      64000          0.46742303     790.83417     -92.34798       883.18215    
   2989800   304.37554      544.29589      64000          0.46742303     814.98833     -91.39005       906.37838    
   2989900   302.116        569.04647      64000          0.46742303     812.96242     -86.687423      899.64985    
   2990000   295.69188      581.03502      64000          0.46742303     798.86126     -81.658671      880.51993    
   2990100   314.81649      598.44267      64000          0.46742303     859.62125     -77.848511      937.46976    
   2990200   305.72484      625.12439      64000          0.46742303     817.23675     -93.159604      910.39636    
   2990300   300.7978       571.82816      64000          0.46742303     803.92898     -91.795509      895.72449    
   2990400   282.40162      530.34888      64000          0.46742303     742.32855     -98.615245      840.94379    
   2990500   298.27433      547.42036      64000          0.46742303     783.88232     -104.32769      888.21001    
   2990600   308.71038      598.14639      64000          0.46742303     822.52792     -96.758877      919.2868     
   2990700   297.34848      573.07222      64000          0.46742303     795.48955     -89.963462      885.45301    
   2990800   288.74053      555.48803      64000          0.46742303     772.19728     -87.622724      859.82       
   2990900   311.76328      595.4184       64000          0.46742303     834.70952     -93.668297      928.37782    
   2991000   308.01994      608.18896      64000          0.46742303     818.2971      -98.933693      917.23079    
   2991100   306.82572      580.21715      64000          0.46742303     827.09632     -86.578275      913.67459    
   2991200   303.8141       597.04106      64000          0.46742303     812.39475     -92.311749      904.7065     
   2991300   303.34919      567.63424      64000          0.46742303     813.486       -89.836087      903.32209    
   2991400   292.84789      537.6801       64000          0.46742303     776.18111     -95.869893      872.05101    
   2991500   288.72872      529.393        64000          0.46742303     754.02387     -105.76097      859.78483    
   2991600   290.97871      538.63361      64000          0.46742303     764.05215     -102.43277      866.48492    
   2991700   307.95358      608.9191       64000          0.46742303     821.81817     -95.215013      917.03318    
   2991800   303.59534      572.77828      64000          0.46742303     814.83279     -89.222302      904.05509    
   2991900   309.4922       638.91195      64000          0.46742303     831.92103     -89.693895      921.61493    
   2992000   306.69147      614.9518       64000          0.46742303     830.72888     -82.545956      913.27484    
   2992100   305.51819      602.66689      64000          0.46742303     824.61222     -85.168773      909.78099    
   2992200   305.57263      607.21791      64000          0.46742303     824.77834     -85.164763      909.9431     
   2992300   297.09439      580.02261      64000          0.46742303     796.98273     -87.71363       884.69636    
   2992400   301.39483      578.5178       64000          0.46742303     811.91846     -85.583887      897.50235    
   2992500   295.12077      598.75564      64000          0.46742303     790.14471     -88.674539      878.81924    
   2992600   291.51299      538.95426      64000          0.46742303     766.5209      -101.55502      868.07592    
   2992700   306.78001      618.49571      64000          0.46742303     814.7165      -98.821987      913.53849    
   2992800   304.90906      612.82587      64000          0.46742303     807.33133     -100.63578      907.96711    
   2992900   312.70737      640.93938      64000          0.46742303     839.30217     -91.886971      931.18914    
   2993000   296.66899      557.49687      64000          0.46742303     783.26967     -100.15993      883.4296     
   2993100   296.50649      594.42072      64000          0.46742303     788.42942     -94.516277      882.94569    
   2993200   308.30547      620.11849      64000          0.46742303     825.68173     -92.399304      918.08103    
   2993300   297.7346       552.90647      64000          0.46742303     798.87926     -87.723528      886.60279    
   2993400   321.08209      624.20617      64000          0.46742303     863.55654     -92.571102      956.12764    
   2993500   302.92816      620.99956      64000          0.46742303     807.02738     -95.040949      902.06833    
   2993600   293.80716      545.47133      64000          0.46742303     776.82471     -98.082849      874.90756    
   2993700   296.48641      572.22362      64000          0.46742303     786.00553     -96.880371      882.8859     
   2993800   296.94878      576.36242      64000          0.46742303     788.18425     -96.078499      884.26275    
   2993900   297.39508      571.73258      64000          0.46742303     774.84633     -110.74543      885.59176    
   2994000   298.65161      580.4878       64000          0.46742303     792.38159     -96.951918      889.3335     
   2994100   294.81246      564.11765      64000          0.46742303     779.72592     -98.175248      877.90116    
   2994200   298.05971      547.17939      64000          0.46742303     789.50957     -98.061347      887.57092    
   2994300   301.24835      557.76866      64000          0.46742303     798.58137     -98.484763      897.06613    
   2994400   304.33343      552.70854      64000          0.46742303     808.79387     -97.459125      906.253      
   2994500   301.51302      556.46151      64000          0.46742303     808.10326     -89.751021      897.85428    
   2994600   296.64766      523.38806      64000          0.46742303     776.82849     -106.53758      883.36607    
   2994700   301.31356      558.65288      64000          0.46742303     800.19019     -97.070154      897.26034    
   2994800   291.76376      613.24378      64000          0.46742303     762.78793     -106.03473      868.82265    
   2994900   304.06488      586.15576      64000          0.46742303     805.98767     -99.465604      905.45328    
   2995000   301.59874      567.91568      64000          0.46742303     802.90445     -95.20508       898.10953    
   2995100   299.09604      574.84015      64000          0.46742303     793.62692     -97.030005      890.65692    
   2995200   305.79086      595.26804      64000          0.46742303     802.96762     -107.62535      910.59297    
   2995300   308.37519      609.00747      64000          0.46742303     822.38327     -95.905388      918.28866    
   2995400   319.45085      629.56925      64000          0.46742303     859.1795      -92.090586      951.27009    
   2995500   302.21543      576.78745      64000          0.46742303     800.61745     -99.328508      899.94596    
   2995600   294.99768      590.14626      64000          0.46742303     790.30791     -88.144821      878.45273    
   2995700   309.31619      634.66946      64000          0.46742303     839.48628     -81.604498      921.09078    
   2995800   297.30361      538.30531      64000          0.46742303     814.38914     -70.930232      885.31937    
   2995900   309.62973      582.18487      64000          0.46742303     839.79978     -82.224688      922.02447    
   2996000   302.42396      549.51223      64000          0.46742303     801.89901     -98.66791       900.56692    
   2996100   313.27213      604.61336      64000          0.46742303     846.74349     -86.127413      932.8709     
   2996200   306.88085      552.21998      64000          0.46742303     818.16357     -95.675208      913.83878    
   2996300   318.04464      601.70362      64000          0.46742303     851.05663     -96.026008      947.08264    
   2996400   307.78157      611.6639       64000          0.46742303     810.95676     -105.56422      916.52097    
   2996500   300.24278      575.91789      64000          0.46742303     796.38594     -97.685793      894.07173    
   2996600   312.9083       594.70334      64000          0.46742303     829.54916     -102.23834      931.7875     
   2996700   302.45201      557.31562      64000          0.46742303     803.22546     -97.424986      900.65045    
   2996800   299.723        554.39526      64000          0.46742303     793.9383      -98.5856        892.5239     
   2996900   295.13457      538.00845      64000          0.46742303     769.51066     -109.34968      878.86034    
   2997000   302.19245      597.8243       64000          0.46742303     820.05944     -79.818067      899.87751    
   2997100   303.25637      606.75844      64000          0.46742303     806.81627     -96.229423      903.0457     
   2997200   311.71039      619.22572      64000          0.46742303     833.46892     -94.751395      928.22031    
   2997300   292.71171      557.57983      64000          0.46742303     781.43709     -90.208383      871.64548    
   2997400   311.32809      607.23739      64000          0.46742303     826.8424      -100.23949      927.08189    
   2997500   307.3637       607.07754      64000          0.46742303     834.02551     -81.251106      915.27662    
   2997600   296.45787      548.35442      64000          0.46742303     790.92668     -91.874246      882.80093    
   2997700   296.31165      572.50693      64000          0.46742303     794.32035     -88.04514       882.36549    
   2997800   296.04455      589.68835      64000          0.46742303     799.89476     -81.675363      881.57013    
   2997900   307.90176      594.48395      64000          0.46742303     823.67019     -93.208674      916.87887    
   2998000   297.1333       568.49948      64000          0.46742303     784.79118     -100.02104      884.81222    
   2998100   294.70737      549.07649      64000          0.46742303     767.76518     -109.82304      877.58822    
   2998200   304.49523      563.51242      64000          0.46742303     801.24775     -105.48704      906.73479    
   2998300   297.53307      567.1649       64000          0.46742303     782.45803     -103.54465      886.00268    
   2998400   296.69553      558.26744      64000          0.46742303     787.29034     -96.21829       883.50863    
   2998500   289.3153       546.7704       64000          0.46742303     778.14965     -83.381914      861.53157    
   2998600   296.31388      595.2955       64000          0.46742303     795.02888     -87.343257      882.37214    
   2998700   297.79953      556.58073      64000          0.46742303     793.83402     -92.962125      886.79614    
   2998800   299.77412      548.06482      64000          0.46742303     802.29228     -90.383853      892.67614    
   2998900   293.76184      575.89473      64000          0.46742303     776.02395     -98.748638      874.77259    
   2999000   307.65136      608.62685      64000          0.46742303     824.84268     -91.290541      916.13322    
   2999100   301.50433      540.61695      64000          0.46742303     804.37595     -93.452465      897.82841    
   2999200   305.31729      553.36692      64000          0.46742303     814.20942     -94.973346      909.18276    
   2999300   284.28084      571.43926      64000          0.46742303     760.82619     -85.713623      846.53981    
   2999400   305.13334      613.36391      64000          0.46742303     826.02175     -82.613239      908.63499    
   2999500   290.30971      559.63074      64000          0.46742303     780.57284     -83.919912      864.49275    
   2999600   289.08344      559.62456      64000          0.46742303     780.63467     -80.206446      860.84112    
   2999700   299.78913      595.42305      64000          0.46742303     802.75262     -89.968212      892.72083    
   2999800   308.07826      592.14594      64000          0.46742303     826.44783     -90.956602      917.40444    
   2999900   304.76499      575.20363      64000          0.46742303     825.16723     -82.370861      907.53809    
   3000000   308.44965      621.60646      64000          0.46742303     818.35117     -100.15921      918.51038    
Loop time of 248.983 on 64 procs for 500000 steps with 1000 atoms

Performance: 347.011 ns/day, 0.069 hours/ns, 2008.166 timesteps/s, 2.008 Matom-step/s
95.7% CPU use with 8 MPI tasks x 8 OpenMP threads

MPI task timing breakdown:
Section |  min time  |  avg time  |  max time  |%varavg| %total
---------------------------------------------------------------
Pair    | 37.856     | 39.548     | 40.714     |  17.3 | 15.88
Neigh   | 5.2142     | 5.3414     | 5.4418     |   3.1 |  2.15
Comm    | 40.537     | 42.052     | 43.517     |  16.2 | 16.89
Output  | 40.043     | 46.533     | 67.984     | 128.7 | 18.69
Modify  | 89.588     | 90.189     | 91.167     |   5.1 | 36.22
Other   |            | 25.32      |            |       | 10.17

Nlocal:            125 ave         144 max         105 min
Histogram: 1 1 0 2 0 0 0 2 1 1
Nghost:        1180.12 ave        1221 max        1146 min
Histogram: 2 0 1 1 0 0 2 0 1 1
Neighs:        7105.38 ave        8345 max        5332 min
Histogram: 1 0 2 0 0 0 2 0 0 3

Total # of neighbors = 56843
Ave neighs/atom = 56.843
Neighbor list builds = 13539
Dangerous builds = 0
CG simulation complete.
Total wall time: 0:17:23
